 vasp.5.4.4.18Apr17-6-g9f103f2a35 (build Feb 09 2019 00:23:50) complex          
  
 executed on             LinuxIFC date 2019.08.16  17:01:55
 running on   40 total cores
 distrk:  each k-point on   40 cores,    1 groups
 distr:  one band on NCORES_PER_BAND=   1 cores,   40 groups


--------------------------------------------------------------------------------------------------------


 INCAR:
 POTCAR:    PAW_PBE K_sv 06Sep2000                
 POTCAR:    PAW_PBE Nb_sv 25May2007               
 POTCAR:    PAW_PBE O 08Apr2002                   

 ----------------------------------------------------------------------------- 
|                                                                             |
|           W    W    AA    RRRRR   N    N  II  N    N   GGGG   !!!           |
|           W    W   A  A   R    R  NN   N  II  NN   N  G    G  !!!           |
|           W    W  A    A  R    R  N N  N  II  N N  N  G       !!!           |
|           W WW W  AAAAAA  RRRRR   N  N N  II  N  N N  G  GGG   !            |
|           WW  WW  A    A  R   R   N   NN  II  N   NN  G    G                |
|           W    W  A    A  R    R  N    N  II  N    N   GGGG   !!!           |
|                                                                             |
|      For optimal performance we recommend to set                            |
|        NCORE= 4 - approx SQRT( number of cores)                             |
|      NCORE specifies how many cores store one orbital (NPAR=cpu/NCORE).     |
|      This setting can  greatly improve the performance of VASP for DFT.     |
|      The default,   NCORE=1            might be grossly inefficient         |
|      on modern multi-core architectures or massively parallel machines.     |
|      Do your own testing !!!!                                               |
|      Unfortunately you need to use the default for GW and RPA calculations. |
|      (for HF NCORE is supported but not extensively tested yet)             |
|                                                                             |
 ----------------------------------------------------------------------------- 

 POTCAR:    PAW_PBE K_sv 06Sep2000                
   VRHFIN =K:  3s3p4s                                                           
   LEXCH  = PE                                                                  
   EATOM  =   775.0067 eV,   56.9614 Ry                                         
                                                                                
   TITEL  = PAW_PBE K_sv 06Sep2000                                              
   LULTRA =        F    use ultrasoft PP ?                                      
   IUNSCR =        1    unscreen: 0-lin 1-nonlin 2-no                           
   RPACOR =    2.200    partial core radius                                     
   POMASS =   39.098; ZVAL   =    9.000    mass and valenz                      
   RCORE  =    2.300    outmost cutoff radius                                   
   RWIGS  =    3.000; RWIGS  =    1.588    wigner-seitz radius (au A)           
   ENMAX  =  259.264; ENMIN  =  194.448 eV                                      
   RCLOC  =    2.005    cutoff for local pot                                    
   LCOR   =        T    correct aug charges                                     
   LPAW   =        T    paw PP                                                  
   EAUG   =  427.853                                                            
   DEXC   =    0.000                                                            
   RMAX   =    2.358    core radius for proj-oper                               
   RAUG   =    1.300    factor for augmentation sphere                          
   RDEP   =    2.372    radius for radial grids                                 
   RDEPT  =    2.002    core radius for aug-charge                              
                                                                                
   Atomic configuration                                                         
    7 entries                                                                   
     n  l   j            E        occ.                                          
     1  0  0.50     -3522.0595   2.0000                                         
     2  0  0.50      -353.3851   2.0000                                         
     2  1  1.50      -280.0935   6.0000                                         
     3  0  0.50       -35.3419   2.0000                                         
     4  0  0.50        -2.3190   1.0000                                         
     3  1  1.50       -18.8125   6.0000                                         
     3  2  1.50        -1.3606   0.0000                                         
   Description                                                                  
     l       E           TYP  RCUT    TYP  RCUT                                 
     0    -35.3418873     23  2.300                                             
     0     -2.3190215     23  2.300                                             
     1    -18.8124623     23  2.300                                             
     1    -20.4087390     23  2.300                                             
     2     -1.3605826     23  2.300                                             
  local pseudopotential read in
  partial core-charges read in
  partial kinetic energy density read in
  atomic valenz-charges read in
  non local Contribution for L=           0  read in
    real space projection operators read in
  non local Contribution for L=           0  read in
    real space projection operators read in
  non local Contribution for L=           1  read in
    real space projection operators read in
  non local Contribution for L=           1  read in
    real space projection operators read in
  non local Contribution for L=           2  read in
    real space projection operators read in
    PAW grid and wavefunctions read in
 
   number of l-projection  operators is LMAX  =           5
   number of lm-projection operators is LMMAX =          13
 
 POTCAR:    PAW_PBE Nb_sv 25May2007               
   VRHFIN =Nb: 4p5s4d                                                           
   LEXCH  = PE                                                                  
   EATOM  =  1555.1913 eV,  114.3033 Ry                                         
                                                                                
   TITEL  = PAW_PBE Nb_sv 25May2007                                             
   LULTRA =        F    use ultrasoft PP ?                                      
   IUNSCR =        1    unscreen: 0-lin 1-nonlin 2-no                           
   RPACOR =    1.800    partial core radius                                     
   POMASS =   92.910; ZVAL   =   13.000    mass and valenz                      
   RCORE  =    2.400    outmost cutoff radius                                   
   RWIGS  =    2.400; RWIGS  =    1.270    wigner-seitz radius (au A)           
   ENMAX  =  293.235; ENMIN  =  219.927 eV                                      
   ICORE  =        3    local potential                                         
   LCOR   =        T    correct aug charges                                     
   LPAW   =        T    paw PP                                                  
   EAUG   =  455.659                                                            
   DEXC   =    0.000                                                            
   RMAX   =    2.456    core radius for proj-oper                               
   RAUG   =    1.300    factor for augmentation sphere                          
   RDEP   =    2.451    radius for radial grids                                 
   RDEPT  =    1.956    core radius for aug-charge                              
                                                                                
   Atomic configuration                                                         
   11 entries                                                                   
     n  l   j            E        occ.                                          
     1  0  0.50    -18805.2457   2.0000                                         
     2  0  0.50     -2630.2869   2.0000                                         
     2  1  1.50     -2348.4046   6.0000                                         
     3  0  0.50      -438.8757   2.0000                                         
     3  1  1.50      -346.7588   6.0000                                         
     3  2  2.50      -196.2560  10.0000                                         
     4  0  0.50       -58.3859   2.0000                                         
     5  0  0.50        -3.9816   1.0000                                         
     4  1  1.50       -34.5141   6.0000                                         
     4  2  2.50        -3.0408   4.0000                                         
     4  3  2.50        -1.3606   0.0000                                         
   Description                                                                  
     l       E           TYP  RCUT    TYP  RCUT                                 
     0    -58.3859094     23  2.200                                             
     0     -3.9816262     23  2.200                                             
     1    -34.5140738     23  2.200                                             
     1     13.6058260     23  2.200                                             
     2     -3.0408010     23  2.200                                             
     2     -0.1283038     23  2.200                                             
     3     -1.3605826     23  2.400                                             
  local pseudopotential read in
  partial core-charges read in
  partial kinetic energy density read in
  atomic valenz-charges read in
  non local Contribution for L=           0  read in
    real space projection operators read in
  non local Contribution for L=           0  read in
    real space projection operators read in
  non local Contribution for L=           1  read in
    real space projection operators read in
  non local Contribution for L=           1  read in
    real space projection operators read in
  non local Contribution for L=           2  read in
    real space projection operators read in
  non local Contribution for L=           2  read in
    real space projection operators read in
    PAW grid and wavefunctions read in
 
   number of l-projection  operators is LMAX  =           6
   number of lm-projection operators is LMMAX =          18
 
 POTCAR:    PAW_PBE O 08Apr2002                   
   VRHFIN =O: s2p4                                                              
   LEXCH  = PE                                                                  
   EATOM  =   432.3788 eV,   31.7789 Ry                                         
                                                                                
   TITEL  = PAW_PBE O 08Apr2002                                                 
   LULTRA =        F    use ultrasoft PP ?                                      
   IUNSCR =        1    unscreen: 0-lin 1-nonlin 2-no                           
   RPACOR =    1.200    partial core radius                                     
   POMASS =   16.000; ZVAL   =    6.000    mass and valenz                      
   RCORE  =    1.520    outmost cutoff radius                                   
   RWIGS  =    1.550; RWIGS  =    0.820    wigner-seitz radius (au A)           
   ENMAX  =  400.000; ENMIN  =  300.000 eV                                      
   ICORE  =        2    local potential                                         
   LCOR   =        T    correct aug charges                                     
   LPAW   =        T    paw PP                                                  
   EAUG   =  605.392                                                            
   DEXC   =    0.000                                                            
   RMAX   =    1.553    core radius for proj-oper                               
   RAUG   =    1.300    factor for augmentation sphere                          
   RDEP   =    1.550    radius for radial grids                                 
   RDEPT  =    1.329    core radius for aug-charge                              
                                                                                
   Atomic configuration                                                         
    4 entries                                                                   
     n  l   j            E        occ.                                          
     1  0  0.50      -514.6923   2.0000                                         
     2  0  0.50       -23.9615   2.0000                                         
     2  1  0.50        -9.0305   4.0000                                         
     3  2  1.50        -9.5241   0.0000                                         
   Description                                                                  
     l       E           TYP  RCUT    TYP  RCUT                                 
     0    -23.9615318     23  1.200                                             
     0     -9.5240782     23  1.200                                             
     1     -9.0304911     23  1.520                                             
     1      8.1634956     23  1.520                                             
     2     -9.5240782      7  1.500                                             
  local pseudopotential read in
  partial core-charges read in
  partial kinetic energy density read in
  kinetic energy density of atom read in
  atomic valenz-charges read in
  non local Contribution for L=           0  read in
    real space projection operators read in
  non local Contribution for L=           0  read in
    real space projection operators read in
  non local Contribution for L=           1  read in
    real space projection operators read in
  non local Contribution for L=           1  read in
    real space projection operators read in
    PAW grid and wavefunctions read in
 
   number of l-projection  operators is LMAX  =           4
   number of lm-projection operators is LMMAX =           8
 

 ----------------------------------------------------------------------------- 
|                                                                             |
|  ADVICE TO THIS USER RUNNING 'VASP/VAMP'   (HEAR YOUR MASTER'S VOICE ...):  |
|                                                                             |
|      You have a (more or less) 'large supercell' and for larger cells       |
|      it might be more efficient to use real space projection opertators     |
|      So try LREAL= Auto  in the INCAR   file.                               |
|      Mind:          For very  accurate calculation you might also keep the  |
|      reciprocal projection scheme          (i.e. LREAL=.FALSE.)             |
|                                                                             |
 ----------------------------------------------------------------------------- 


 ----------------------------------------------------------------------------- 
|                                                                             |
|  ADVICE TO THIS USER RUNNING 'VASP/VAMP'   (HEAR YOUR MASTER'S VOICE ...):  |
|                                                                             |
|      You enforced a specific xc-type in the INCAR file,                     |
|      a different type was found on the POTCAR file                          |
|          I HOPE YOU KNOW, WHAT YOU ARE  DOING                               |
|                                                                             |
 ----------------------------------------------------------------------------- 

  PAW_PBE K_sv 06Sep2000                :
 energy of atom  1       EATOM= -775.0067
 kinetic energy error for atom=    0.0017 (will be added to EATOM!!)
  PAW_PBE Nb_sv 25May2007               :
 energy of atom  2       EATOM=-1555.1913
 kinetic energy error for atom=    0.0069 (will be added to EATOM!!)
  PAW_PBE O 08Apr2002                   :
 energy of atom  3       EATOM= -432.3788
 kinetic energy error for atom=    0.0224 (will be added to EATOM!!)
 
 
 POSCAR: na1 nb1 o3                              
  positions in direct lattice
  No initial velocities read in
 exchange correlation table for  LEXCH =       14
   RHO(1)=    0.500       N(1)  =     2000
   RHO(2)=  100.500       N(2)  =     4000
 


--------------------------------------------------------------------------------------------------------


 ion  position               nearest neighbor table
   1  0.000  0.000  0.250-  13 2.40  17 2.40  15 2.40  20 2.78  24 2.78  22 2.78  30 2.78  26 2.78
                            28 2.78  12 3.37   9 3.37  12 3.37  12 3.37   9 3.37   9 3.37   8 3.39
   2  0.000  0.000  0.750-  16 2.40  18 2.40  14 2.40  29 2.78  25 2.78  27 2.78  19 2.78  23 2.78
                            21 2.78  10 3.37  11 3.37  10 3.37  11 3.37  10 3.37  11 3.37   7 3.39
   3  0.667  0.333  0.583-  23 2.40  19 2.40  21 2.40  26 2.78  28 2.78  30 2.78  14 2.78  16 2.78
                            18 2.78  11 3.37   8 3.37   8 3.37   8 3.37  11 3.37  11 3.37  10 3.39
   4  0.667  0.333  0.083-  20 2.40  22 2.40  24 2.40  15 2.78  13 2.78  17 2.78  27 2.78  25 2.78
                            29 2.78  12 3.37  12 3.37   7 3.37   7 3.37   7 3.37  12 3.37   9 3.39
   5  0.333  0.667  0.917-  27 2.40  25 2.40  29 2.40  18 2.78  16 2.78  14 2.78  22 2.78  20 2.78
                            24 2.78  10 3.37   7 3.37  10 3.37   7 3.37   7 3.37  10 3.37  11 3.39
   6  0.333  0.667  0.417-  30 2.40  26 2.40  28 2.40  21 2.78  19 2.78  23 2.78  17 2.78  13 2.78
                            15 2.78   8 3.37   8 3.37   9 3.37   9 3.37   8 3.37   9 3.37  11 3.39
   7  0.000  0.000  0.000-  29 1.98  20 1.98  25 1.98  24 1.98  22 1.98  27 1.98   5 3.37   4 3.37
                             5 3.37   4 3.37   4 3.37   5 3.37   2 3.39   1 3.39
   8  0.000  0.000  0.500-  30 1.98  26 1.98  28 1.98  19 1.98  23 1.98  21 1.98   6 3.37   6 3.37
                             3 3.37   6 3.37   3 3.37   3 3.37   1 3.39   2 3.39
   9  0.667  0.333  0.333-  13 1.98  30 1.98  15 1.98  28 1.98  26 1.98  17 1.98   1 3.37   6 3.37
                             6 3.37   1 3.37   1 3.37   6 3.37   4 3.39   3 3.39
  10  0.667  0.333  0.833-  14 1.98  27 1.98  18 1.98  16 1.98  29 1.98  25 1.98   2 3.37   2 3.37
                             5 3.37   5 3.37   2 3.37   5 3.37   3 3.39   4 3.39
  11  0.333  0.667  0.667-  18 1.98  21 1.98  19 1.98  14 1.98  16 1.98  23 1.98   3 3.37   2 3.37
                             2 3.37   3 3.37   3 3.37   2 3.37   5 3.39   6 3.39
  12  0.333  0.667  0.167-  17 1.98  20 1.98  15 1.98  22 1.98  24 1.98  13 1.98   1 3.37   4 3.37
                             4 3.37   1 3.37   1 3.37   4 3.37   5 3.39   6 3.39
  13  0.000  0.563  0.250-   9 1.98  12 1.98   1 2.40   4 2.78   6 2.78
  14  0.000  0.437  0.750-  10 1.98  11 1.98   2 2.40   5 2.78   3 2.78
  15  0.437  0.437  0.250-  12 1.98   9 1.98   1 2.40   4 2.78   6 2.78
  16  0.563  0.563  0.750-  10 1.98  11 1.98   2 2.40   5 2.78   3 2.78
  17  0.563  0.000  0.250-  12 1.98   9 1.98   1 2.40   4 2.78   6 2.78
  18  0.437  0.000  0.750-  11 1.98  10 1.98   2 2.40   5 2.78   3 2.78
  19  0.667  0.896  0.583-   8 1.98  11 1.98   3 2.40   6 2.78   2 2.78
  20  0.667  0.770  0.083-  12 1.98   7 1.98   4 2.40   1 2.78   5 2.78
  21  0.104  0.770  0.583-  11 1.98   8 1.98   3 2.40   6 2.78   2 2.78
  22  0.230  0.896  0.083-  12 1.98   7 1.98   4 2.40   1 2.78   5 2.78
  23  0.230  0.333  0.583-   8 1.98  11 1.98   3 2.40   6 2.78   2 2.78
  24  0.104  0.333  0.083-  12 1.98   7 1.98   4 2.40   1 2.78   5 2.78
  25  0.333  0.230  0.917-   7 1.98  10 1.98   5 2.40   2 2.78   4 2.78
  26  0.333  0.104  0.417-   8 1.98   9 1.98   6 2.40   3 2.78   1 2.78
  27  0.770  0.104  0.917-  10 1.98   7 1.98   5 2.40   2 2.78   4 2.78
  28  0.896  0.230  0.417-   8 1.98   9 1.98   6 2.40   3 2.78   1 2.78
  29  0.896  0.667  0.917-   7 1.98  10 1.98   5 2.40   2 2.78   4 2.78
  30  0.770  0.667  0.417-   8 1.98   9 1.98   6 2.40   3 2.78   1 2.78
 
  LATTYP: Found a hexagonal cell.
 ALAT       =     5.4900707142
 C/A-ratio  =     2.4726577783
  
  Lattice vectors:
  
 A1 = (   5.4900707142,  -0.0000000000,   0.0000000000)
 A2 = (  -2.7450353572,   4.7545407071,   0.0000000000)
 A3 = (   0.0000000000,   0.0000000000,  13.5750660548)


Analysis of symmetry for initial positions (statically):
=====================================================================
 Subroutine PRICEL returns following result:
 
  LATTYP: Found a trigonal (rhomboedric) cell.
 ALAT       =     5.5247425074
 COS(alpha) =     0.5062561064
  
  Lattice vectors:
  
 A1 = (  -2.7450353626,  -1.5848467534,  -4.5250217015)
 A2 = (   0.0000000027,   3.1696937302,  -4.5250221766)
 A3 = (   2.7450353599,  -1.5848469769,  -4.5250221766)
 
   3 primitive cells build up your supercell.
 

 Routine SETGRP: Setting up the symmetry group for a 
 hexagonal supercell.


 Subroutine GETGRP returns: Found 12 space group operations
 (whereof  6 operations were pure point group operations)
 out of a pool of 24 trial point group operations.


The static configuration has the point symmetry S_6 .
 The point group associated with its full space group is D_3d.


Analysis of symmetry for dynamics (positions and initial velocities):
=====================================================================
 Subroutine PRICEL returns following result:
 
  LATTYP: Found a trigonal (rhomboedric) cell.
 ALAT       =     5.5247425074
 COS(alpha) =     0.5062561064
  
  Lattice vectors:
  
 A1 = (  -2.7450353626,  -1.5848467534,  -4.5250217015)
 A2 = (   0.0000000027,   3.1696937302,  -4.5250221766)
 A3 = (   2.7450353599,  -1.5848469769,  -4.5250221766)
 
   3 primitive cells build up your supercell.
 

 Routine SETGRP: Setting up the symmetry group for a 
 hexagonal supercell.


 Subroutine GETGRP returns: Found 12 space group operations
 (whereof  6 operations were pure point group operations)
 out of a pool of 24 trial point group operations.


The dynamic configuration has the point symmetry S_6 .
 The point group associated with its full space group is D_3d.


 Subroutine INISYM returns: Found 12 space group operations
 (whereof  6 operations are pure point group operations),
 and found     3 'primitive' translations

 
 
 KPOINTS: Automatic mesh                          

Automatic generation of k-mesh.
Space group operators:
 irot       det(A)        alpha          n_x          n_y          n_z        tau_x        tau_y        tau_z
    1     1.000000     0.000001     1.000000     0.000000     0.000000     0.000000     0.000000     0.000000
    2    -1.000000     0.000001     1.000000     0.000000     0.000000     0.000000     0.000000     0.000000
    3     1.000000   120.000000     0.000000     0.000000    -1.000000     0.000000     0.000000     0.000000
    4    -1.000000   120.000000     0.000000     0.000000    -1.000000     0.000000     0.000000     0.000000
    5     1.000000   120.000000     0.000000     0.000000     1.000000     0.000000     0.000000     0.000000
    6    -1.000000   120.000000     0.000000     0.000000     1.000000     0.000000     0.000000     0.000000
    7     1.000000   180.000000     1.000000     0.000000     0.000000     0.000000     0.000000    -0.500000
    8    -1.000000   180.000000     1.000000     0.000000     0.000000    -0.000000    -0.000000    -0.500000
    9     1.000000   180.000000     0.500000    -0.866025     0.000000     0.000000     0.000000    -0.500000
   10    -1.000000   180.000000     0.500000    -0.866025     0.000000    -0.000000     0.000000    -0.500000
   11     1.000000   180.000000    -0.500000    -0.866025     0.000000    -0.000000    -0.000000    -0.500000
   12    -1.000000   180.000000    -0.500000    -0.866025     0.000000     0.000000     0.000000    -0.500000
 
 Subroutine IBZKPT returns following result:
 ===========================================
 
 Found     20 irreducible k-points:
 
 Following reciprocal coordinates:
            Coordinates               Weight
  0.000000  0.000000  0.000000      1.000000
  0.142857  0.000000  0.000000      6.000000
  0.285714  0.000000  0.000000      6.000000
  0.428571  0.000000  0.000000      6.000000
  0.142857  0.142857  0.000000      6.000000
  0.285714  0.142857  0.000000     12.000000
  0.428571  0.142857  0.000000      6.000000
  0.285714  0.285714  0.000000      6.000000
  0.000000  0.000000  0.333333      2.000000
  0.142857  0.000000  0.333333      6.000000
  0.285714  0.000000  0.333333      6.000000
  0.428571  0.000000  0.333333      6.000000
 -0.428571 -0.000000  0.333333      6.000000
 -0.285714  0.000000  0.333333      6.000000
 -0.142857  0.000000  0.333333      6.000000
  0.142857  0.142857  0.333333     12.000000
  0.285714  0.142857  0.333333     12.000000
  0.428571  0.142857  0.333333     12.000000
 -0.428571  0.142857  0.333333     12.000000
  0.285714  0.285714  0.333333     12.000000
 
 Following cartesian coordinates:
            Coordinates               Weight
  0.000000  0.000000  0.000000      1.000000
  0.026021  0.015023  0.000000      6.000000
  0.052042  0.030046  0.000000      6.000000
  0.078063  0.045070  0.000000      6.000000
  0.026021  0.045070  0.000000      6.000000
  0.052042  0.060093  0.000000     12.000000
  0.078063  0.075116  0.000000      6.000000
  0.052042  0.090139  0.000000      6.000000
  0.000000  0.000000  0.024555      2.000000
  0.026021  0.015023  0.024555      6.000000
  0.052042  0.030046  0.024555      6.000000
  0.078063  0.045070  0.024555      6.000000
 -0.078063 -0.045070  0.024555      6.000000
 -0.052042 -0.030046  0.024555      6.000000
 -0.026021 -0.015023  0.024555      6.000000
  0.026021  0.045070  0.024555     12.000000
  0.052042  0.060093  0.024555     12.000000
  0.078063  0.075116  0.024555     12.000000
 -0.078063 -0.015023  0.024555     12.000000
  0.052042  0.090139  0.024555     12.000000
 
 
 Subroutine IBZKPT_HF returns following result:
 ==============================================
 
 Found    147 k-points in 1st BZ
 the following    147 k-points will be used (e.g. in the exchange kernel)
 Following reciprocal coordinates:   # in IRBZ
  0.000000  0.000000  0.000000    0.00680272   1 t-inv F
  0.142857  0.000000  0.000000    0.00680272   2 t-inv F
  0.285714  0.000000  0.000000    0.00680272   3 t-inv F
  0.428571  0.000000  0.000000    0.00680272   4 t-inv F
  0.142857  0.142857  0.000000    0.00680272   5 t-inv F
  0.285714  0.142857  0.000000    0.00680272   6 t-inv F
  0.428571  0.142857  0.000000    0.00680272   7 t-inv F
  0.285714  0.285714  0.000000    0.00680272   8 t-inv F
  0.000000  0.000000  0.333333    0.00680272   9 t-inv F
  0.142857  0.000000  0.333333    0.00680272  10 t-inv F
  0.285714  0.000000  0.333333    0.00680272  11 t-inv F
  0.428571  0.000000  0.333333    0.00680272  12 t-inv F
 -0.428571 -0.000000  0.333333    0.00680272  13 t-inv F
 -0.285714  0.000000  0.333333    0.00680272  14 t-inv F
 -0.142857  0.000000  0.333333    0.00680272  15 t-inv F
  0.142857  0.142857  0.333333    0.00680272  16 t-inv F
  0.285714  0.142857  0.333333    0.00680272  17 t-inv F
  0.428571  0.142857  0.333333    0.00680272  18 t-inv F
 -0.428571  0.142857  0.333333    0.00680272  19 t-inv F
  0.285714  0.285714  0.333333    0.00680272  20 t-inv F
 -0.142857  0.000000  0.000000    0.00680272   2 t-inv F
 -0.142857  0.142857  0.000000    0.00680272   2 t-inv F
  0.142857 -0.142857  0.000000    0.00680272   2 t-inv F
  0.000000 -0.142857  0.000000    0.00680272   2 t-inv F
  0.000000  0.142857  0.000000    0.00680272   2 t-inv F
 -0.285714  0.000000  0.000000    0.00680272   3 t-inv F
 -0.285714  0.285714  0.000000    0.00680272   3 t-inv F
  0.285714 -0.285714  0.000000    0.00680272   3 t-inv F
  0.000000 -0.285714  0.000000    0.00680272   3 t-inv F
  0.000000  0.285714  0.000000    0.00680272   3 t-inv F
 -0.428571 -0.000000  0.000000    0.00680272   4 t-inv F
 -0.428571  0.428571  0.000000    0.00680272   4 t-inv F
  0.428571 -0.428571  0.000000    0.00680272   4 t-inv F
  0.000000 -0.428571  0.000000    0.00680272   4 t-inv F
 -0.000000  0.428571  0.000000    0.00680272   4 t-inv F
 -0.142857 -0.142857  0.000000    0.00680272   5 t-inv F
 -0.285714  0.142857  0.000000    0.00680272   5 t-inv F
  0.285714 -0.142857  0.000000    0.00680272   5 t-inv F
  0.142857 -0.285714  0.000000    0.00680272   5 t-inv F
 -0.142857  0.285714  0.000000    0.00680272   5 t-inv F
 -0.285714 -0.142857  0.000000    0.00680272   6 t-inv F
 -0.428571  0.285714  0.000000    0.00680272   6 t-inv F
  0.428571 -0.285714  0.000000    0.00680272   6 t-inv F
  0.142857 -0.428571  0.000000    0.00680272   6 t-inv F
 -0.142857  0.428571  0.000000    0.00680272   6 t-inv F
  0.285714 -0.428571  0.000000    0.00680272   6 t-inv F
 -0.285714  0.428571  0.000000    0.00680272   6 t-inv F
 -0.428571  0.142857  0.000000    0.00680272   6 t-inv F
  0.428571 -0.142857  0.000000    0.00680272   6 t-inv F
  0.142857  0.285714  0.000000    0.00680272   6 t-inv F
 -0.142857 -0.285714  0.000000    0.00680272   6 t-inv F
 -0.428571 -0.142857  0.000000    0.00680272   7 t-inv F
 -0.571429  0.428571  0.000000    0.00680272   7 t-inv F
  0.571429 -0.428571  0.000000    0.00680272   7 t-inv F
  0.142857 -0.571429  0.000000    0.00680272   7 t-inv F
 -0.142857  0.571429  0.000000    0.00680272   7 t-inv F
 -0.285714 -0.285714  0.000000    0.00680272   8 t-inv F
 -0.571429  0.285714  0.000000    0.00680272   8 t-inv F
  0.571429 -0.285714  0.000000    0.00680272   8 t-inv F
  0.285714 -0.571429  0.000000    0.00680272   8 t-inv F
 -0.285714  0.571429  0.000000    0.00680272   8 t-inv F
  0.000000  0.000000 -0.333333    0.00680272   9 t-inv F
 -0.142857  0.000000 -0.333333    0.00680272  10 t-inv F
 -0.142857  0.142857  0.333333    0.00680272  10 t-inv F
  0.142857 -0.142857 -0.333333    0.00680272  10 t-inv F
  0.000000 -0.142857  0.333333    0.00680272  10 t-inv F
  0.000000  0.142857 -0.333333    0.00680272  10 t-inv F
 -0.285714  0.000000 -0.333333    0.00680272  11 t-inv F
 -0.285714  0.285714  0.333333    0.00680272  11 t-inv F
  0.285714 -0.285714 -0.333333    0.00680272  11 t-inv F
  0.000000 -0.285714  0.333333    0.00680272  11 t-inv F
  0.000000  0.285714 -0.333333    0.00680272  11 t-inv F
 -0.428571 -0.000000 -0.333333    0.00680272  12 t-inv F
 -0.428571  0.428571  0.333333    0.00680272  12 t-inv F
  0.428571 -0.428571 -0.333333    0.00680272  12 t-inv F
  0.000000 -0.428571  0.333333    0.00680272  12 t-inv F
 -0.000000  0.428571 -0.333333    0.00680272  12 t-inv F
  0.428571  0.000000 -0.333333    0.00680272  13 t-inv F
  0.428571 -0.428571  0.333333    0.00680272  13 t-inv F
 -0.428571  0.428571 -0.333333    0.00680272  13 t-inv F
 -0.000000  0.428571  0.333333    0.00680272  13 t-inv F
  0.000000 -0.428571 -0.333333    0.00680272  13 t-inv F
  0.285714  0.000000 -0.333333    0.00680272  14 t-inv F
  0.285714 -0.285714  0.333333    0.00680272  14 t-inv F
 -0.285714  0.285714 -0.333333    0.00680272  14 t-inv F
  0.000000  0.285714  0.333333    0.00680272  14 t-inv F
  0.000000 -0.285714 -0.333333    0.00680272  14 t-inv F
  0.142857  0.000000 -0.333333    0.00680272  15 t-inv F
  0.142857 -0.142857  0.333333    0.00680272  15 t-inv F
 -0.142857  0.142857 -0.333333    0.00680272  15 t-inv F
  0.000000  0.142857  0.333333    0.00680272  15 t-inv F
  0.000000 -0.142857 -0.333333    0.00680272  15 t-inv F
 -0.142857 -0.142857 -0.333333    0.00680272  16 t-inv F
 -0.285714  0.142857  0.333333    0.00680272  16 t-inv F
  0.285714 -0.142857 -0.333333    0.00680272  16 t-inv F
  0.142857 -0.285714  0.333333    0.00680272  16 t-inv F
 -0.142857  0.285714 -0.333333    0.00680272  16 t-inv F
  0.142857 -0.285714 -0.333333    0.00680272  16 t-inv F
 -0.142857  0.285714  0.333333    0.00680272  16 t-inv F
 -0.285714  0.142857 -0.333333    0.00680272  16 t-inv F
  0.285714 -0.142857  0.333333    0.00680272  16 t-inv F
  0.142857  0.142857 -0.333333    0.00680272  16 t-inv F
 -0.142857 -0.142857  0.333333    0.00680272  16 t-inv F
 -0.285714 -0.142857 -0.333333    0.00680272  17 t-inv F
 -0.428571  0.285714  0.333333    0.00680272  17 t-inv F
  0.428571 -0.285714 -0.333333    0.00680272  17 t-inv F
  0.142857 -0.428571  0.333333    0.00680272  17 t-inv F
 -0.142857  0.428571 -0.333333    0.00680272  17 t-inv F
  0.285714 -0.428571 -0.333333    0.00680272  17 t-inv F
 -0.285714  0.428571  0.333333    0.00680272  17 t-inv F
 -0.428571  0.142857 -0.333333    0.00680272  17 t-inv F
  0.428571 -0.142857  0.333333    0.00680272  17 t-inv F
  0.142857  0.285714 -0.333333    0.00680272  17 t-inv F
 -0.142857 -0.285714  0.333333    0.00680272  17 t-inv F
 -0.428571 -0.142857 -0.333333    0.00680272  18 t-inv F
 -0.571429  0.428571  0.333333    0.00680272  18 t-inv F
  0.571429 -0.428571 -0.333333    0.00680272  18 t-inv F
  0.142857 -0.571429  0.333333    0.00680272  18 t-inv F
 -0.142857  0.571429 -0.333333    0.00680272  18 t-inv F
  0.428571 -0.571429 -0.333333    0.00680272  18 t-inv F
 -0.428571  0.571429  0.333333    0.00680272  18 t-inv F
 -0.571429  0.142857 -0.333333    0.00680272  18 t-inv F
  0.571429 -0.142857  0.333333    0.00680272  18 t-inv F
  0.142857  0.428571 -0.333333    0.00680272  18 t-inv F
 -0.142857 -0.428571  0.333333    0.00680272  18 t-inv F
  0.428571 -0.142857 -0.333333    0.00680272  19 t-inv F
  0.285714 -0.428571  0.333333    0.00680272  19 t-inv F
 -0.285714  0.428571 -0.333333    0.00680272  19 t-inv F
  0.142857  0.285714  0.333333    0.00680272  19 t-inv F
 -0.142857 -0.285714 -0.333333    0.00680272  19 t-inv F
 -0.428571  0.285714 -0.333333    0.00680272  19 t-inv F
  0.428571 -0.285714  0.333333    0.00680272  19 t-inv F
  0.285714  0.142857 -0.333333    0.00680272  19 t-inv F
 -0.285714 -0.142857  0.333333    0.00680272  19 t-inv F
  0.142857 -0.428571 -0.333333    0.00680272  19 t-inv F
 -0.142857  0.428571  0.333333    0.00680272  19 t-inv F
 -0.285714 -0.285714 -0.333333    0.00680272  20 t-inv F
 -0.571429  0.285714  0.333333    0.00680272  20 t-inv F
  0.571429 -0.285714 -0.333333    0.00680272  20 t-inv F
  0.285714 -0.571429  0.333333    0.00680272  20 t-inv F
 -0.285714  0.571429 -0.333333    0.00680272  20 t-inv F
  0.285714 -0.571429 -0.333333    0.00680272  20 t-inv F
 -0.285714  0.571429  0.333333    0.00680272  20 t-inv F
 -0.571429  0.285714 -0.333333    0.00680272  20 t-inv F
  0.571429 -0.285714  0.333333    0.00680272  20 t-inv F
  0.285714  0.285714 -0.333333    0.00680272  20 t-inv F
 -0.285714 -0.285714  0.333333    0.00680272  20 t-inv F


--------------------------------------------------------------------------------------------------------




 Dimension of arrays:
   k-points           NKPTS =     20   k-points in BZ     NKDIM =     20   number of bands    NBANDS=    160
   number of dos      NEDOS =    301   number of ions     NIONS =     30
   non local maximal  LDIM  =      6   non local SUM 2l+1 LMDIM =     18
   total plane-waves  NPLWV = 160000
   max r-space proj   IRMAX =      1   max aug-charges    IRDMAX= 168315
   dimension x,y,z NGX =    40 NGY =   40 NGZ =  100
   dimension x,y,z NGXF=    80 NGYF=   80 NGZF=  200
   support grid    NGXF=   160 NGYF=  160 NGZF=  400
   ions per type =               6   6  18
   NGX,Y,Z   is equivalent  to a cutoff of  12.11, 12.11, 12.25 a.u.
   NGXF,Y,Z  is equivalent  to a cutoff of  24.22, 24.22, 24.49 a.u.

 SYSTEM =  unknown system                          
 POSCAR =  na1 nb1 o3                              

 Startparameter for this run:
   NWRITE =      2    write-flag & timer
   PREC   = accura    normal or accurate (medium, high low for compatibility)
   ISTART =      0    job   : 0-new  1-cont  2-samecut
   ICHARG =      2    charge: 1-file 2-atom 10-const
   ISPIN  =      1    spin polarized calculation?
   LNONCOLLINEAR =      F non collinear calculations
   LSORBIT =      F    spin-orbit coupling
   INIWAV =      1    electr: 0-lowe 1-rand  2-diag
   LASPH  =      T    aspherical Exc in radial PAW
   METAGGA=      F    non-selfconsistent MetaGGA calc.

 Electronic Relaxation 1
   ENCUT  =  500.0 eV  36.75 Ry    6.06 a.u.  10.01 10.01 24.75*2*pi/ulx,y,z
   ENINI  =  500.0     initial cutoff
   ENAUG  =  605.4 eV  augmentation charge cutoff
   NELM   =    100;   NELMIN= 10; NELMDL= -5     # of ELM steps 
   EDIFF  = 0.1E-05   stopping-criterion for ELM
   LREAL  =      F    real-space projection
   NLSPLINE    = F    spline interpolate recip. space projectors
   LCOMPAT=      F    compatible to vasp.4.4
   GGA_COMPAT  = T    GGA compatible to vasp.4.4-vasp.4.6
   LMAXPAW     = -100 max onsite density
   LMAXMIX     =    2 max onsite mixed and CHGCAR
   VOSKOWN=      0    Vosko Wilk Nusair interpolation
   ROPT   =    0.00000   0.00000   0.00000
 Ionic relaxation
   EDIFFG = 0.1E-04   stopping-criterion for IOM
   NSW    =      1    number of steps for IOM
   NBLOCK =      1;   KBLOCK =      1    inner block; outer block 
   IBRION =      8    ionic relax: 0-MD 1-quasi-New 2-CG
   NFREE  =      0    steps in history (QN), initial steepest desc. (CG)
   ISIF   =      2    stress and relaxation
   IWAVPR =     11    prediction:  0-non 1-charg 2-wave 3-comb
   ISYM   =      2    0-nonsym 1-usesym 2-fastsym
   LCORR  =      T    Harris-Foulkes like correction to forces

   POTIM  = 0.0500    time-step for ionic-motion
   TEIN   =    0.0    initial temperature
   TEBEG  =    0.0;   TEEND  =   0.0 temperature during run
   SMASS  =  -3.00    Nose mass-parameter (am)
   estimated Nose-frequenzy (Omega)   =  0.10E-29 period in steps =****** mass=  -0.689E-27a.u.
   SCALEE = 1.0000    scale energy and forces
   NPACO  =    256;   APACO  = 16.0  distance and # of slots for P.C.
   PSTRESS=    0.0 pullay stress

  Mass of Ions in am
   POMASS =  39.10 92.91 16.00
  Ionic Valenz
   ZVAL   =   9.00 13.00  6.00
  Atomic Wigner-Seitz radii
   RWIGS  =  -1.00 -1.00 -1.00
  virtual crystal weights 
   VCA    =   1.00  1.00  1.00
   NELECT =     240.0000    total number of electrons
   NUPDOWN=      -1.0000    fix difference up-down

 DOS related values:
   EMIN   =  10.00;   EMAX   =-10.00  energy-range for DOS
   EFERMI =   0.00
   ISMEAR =     0;   SIGMA  =   0.01  broadening in eV -4-tet -1-fermi 0-gaus

 Electronic relaxation 2 (details)
   IALGO  =     38    algorithm
   LDIAG  =      T    sub-space diagonalisation (order eigenvalues)
   LSUBROT=      F    optimize rotation matrix (better conditioning)
   TURBO    =      0    0=normal 1=particle mesh
   IRESTART =      0    0=no restart 2=restart with 2 vectors
   NREBOOT  =      0    no. of reboots
   NMIN     =      0    reboot dimension
   EREF     =   0.00    reference energy to select bands
   IMIX   =      4    mixing-type and parameters
     AMIX     =   0.40;   BMIX     =  1.00
     AMIX_MAG =   1.60;   BMIX_MAG =  1.00
     AMIN     =   0.10
     WC   =   100.;   INIMIX=   1;  MIXPRE=   1;  MAXMIX= -45

 Intra band minimization:
   WEIMIN = 0.0010     energy-eigenvalue tresh-hold
   EBREAK =  0.16E-08  absolut break condition
   DEPER  =   0.30     relativ break condition  

   TIME   =   0.40     timestep for ELM

  volume/ion in A,a.u.               =      11.81        79.71
  Fermi-wavevector in a.u.,A,eV,Ry     =   1.437703  2.716864 28.123094  2.066989
  Thomas-Fermi vector in A             =   2.556751
 
 Write flags
   LWAVE        =      F    write WAVECAR
   LDOWNSAMPLE  =      F    k-point downsampling of WAVECAR
   LCHARG       =      F    write CHGCAR
   LVTOT        =      F    write LOCPOT, total local potential
   LVHAR        =      F    write LOCPOT, Hartree potential only
   LELF         =      F    write electronic localiz. function (ELF)
   LORBIT       =     10    0 simple, 1 ext, 2 COOP (PROOUT), +10 PAW based schemes


 Dipole corrections
   LMONO  =      F    monopole corrections only (constant potential shift)
   LDIPOL =      F    correct potential (dipole corrections)
   IDIPOL =      0    1-x, 2-y, 3-z, 4-all directions 
   EPSILON=  1.0000000 bulk dielectric constant

 Exchange correlation treatment:
   GGA     =    PS    GGA type
   LEXCH   =    14    internal setting for exchange type
   VOSKOWN=      0    Vosko Wilk Nusair interpolation
   LHFCALC =     F    Hartree Fock is set to
   LHFONE  =     F    Hartree Fock one center treatment
   AEXX    =    0.0000 exact exchange contribution

 Linear response parameters
   LEPSILON=     T    determine dielectric tensor
   LRPA    =     F    only Hartree local field effects (RPA)
   LNABLA  =     F    use nabla operator in PAW spheres
   LVEL    =     F    velocity operator in full k-point grid
   LINTERFAST=   F  fast interpolation
   KINTER  =     0    interpolate to denser k-point grid
   CSHIFT  =0.1000    complex shift for real part using Kramers Kronig
   OMEGAMAX=  -1.0    maximum frequency
   DEG_THRESHOLD= 0.2000000E-02 threshold for treating states as degnerate
   RTIME   =   -0.100 relaxation time in fs
  (WPLASMAI=    0.000 imaginary part of plasma frequency in eV, 0.658/RTIME)
   DFIELD  = 0.0000000 0.0000000 0.0000000 field for delta impulse in time
 
 Orbital magnetization related:
   ORBITALMAG=     F  switch on orbital magnetization
   LCHIMAG   =     F  perturbation theory with respect to B field
   DQ        =  0.001000  dq finite difference perturbation B field
   LLRAUG    =     F  two centre corrections for induced B field



--------------------------------------------------------------------------------------------------------


 linear response using symmetry
 charge density and potential will be updated during run
 non-spin polarized calculation
 Variant of blocked Davidson
 Davidson routine will perform the subspace rotation
 perform sub-space diagonalisation
    after iterative eigenvector-optimisation
 modified Broyden-mixing scheme, WC =      100.0
 initial mixing is a Kerker type mixing with AMIX =  0.4000 and BMIX =      1.0000
 Hartree-type preconditioning will be used
 using additional bands           40
 reciprocal scheme for non local part
 use partial core corrections
 calculate Harris-corrections to forces 
   (improved forces if not selfconsistent)
 use gradient corrections 
 use of overlap-Matrix (Vanderbilt PP)
 Gauss-broadening in eV      SIGMA  =   0.01


--------------------------------------------------------------------------------------------------------


  energy-cutoff  :      500.00
  volume of cell :      354.35
      direct lattice vectors                 reciprocal lattice vectors
     5.490070714 -0.000000000  0.000000000     0.182147016  0.105162629  0.000000000
    -2.745035357  4.754540707  0.000000000     0.000000000  0.210325258  0.000000000
     0.000000000  0.000000000 13.575066055     0.000000000  0.000000000  0.073664467

  length of vectors
     5.490070714  5.490070714 13.575066055     0.210325258  0.210325258  0.073664467


 
 k-points in units of 2pi/SCALE and weight: Automatic mesh                          
   0.00000000  0.00000000  0.00000000       0.007
   0.02602100  0.01502323  0.00000000       0.041
   0.05204200  0.03004647  0.00000000       0.041
   0.07806301  0.04506970  0.00000000       0.041
   0.02602100  0.04506970  0.00000000       0.041
   0.05204200  0.06009293  0.00000000       0.082
   0.07806301  0.07511616  0.00000000       0.041
   0.05204200  0.09013940  0.00000000       0.041
   0.00000000  0.00000000  0.02455482       0.014
   0.02602100  0.01502323  0.02455482       0.041
   0.05204200  0.03004647  0.02455482       0.041
   0.07806301  0.04506970  0.02455482       0.041
  -0.07806301 -0.04506970  0.02455482       0.041
  -0.05204200 -0.03004647  0.02455482       0.041
  -0.02602100 -0.01502323  0.02455482       0.041
   0.02602100  0.04506970  0.02455482       0.082
   0.05204200  0.06009293  0.02455482       0.082
   0.07806301  0.07511616  0.02455482       0.082
  -0.07806301 -0.01502323  0.02455482       0.082
   0.05204200  0.09013940  0.02455482       0.082
 
 k-points in reciprocal lattice and weights: Automatic mesh                          
   0.00000000  0.00000000  0.00000000       0.007
   0.14285714  0.00000000  0.00000000       0.041
   0.28571429  0.00000000  0.00000000       0.041
   0.42857143  0.00000000  0.00000000       0.041
   0.14285714  0.14285714  0.00000000       0.041
   0.28571429  0.14285714  0.00000000       0.082
   0.42857143  0.14285714  0.00000000       0.041
   0.28571429  0.28571429  0.00000000       0.041
   0.00000000  0.00000000  0.33333333       0.014
   0.14285714  0.00000000  0.33333333       0.041
   0.28571429  0.00000000  0.33333333       0.041
   0.42857143  0.00000000  0.33333333       0.041
  -0.42857143 -0.00000000  0.33333333       0.041
  -0.28571429  0.00000000  0.33333333       0.041
  -0.14285714  0.00000000  0.33333333       0.041
   0.14285714  0.14285714  0.33333333       0.082
   0.28571429  0.14285714  0.33333333       0.082
   0.42857143  0.14285714  0.33333333       0.082
  -0.42857143  0.14285714  0.33333333       0.082
   0.28571429  0.28571429  0.33333333       0.082
 
 position of ions in fractional coordinates (direct lattice) 
   0.00000000  0.00000000  0.25000000
   0.00000000  0.00000000  0.75000003
   0.66666667  0.33333335  0.58333334
   0.66666667  0.33333335  0.08333334
   0.33333335  0.66666670  0.91666666
   0.33333335  0.66666670  0.41666669
   0.00000000  0.00000000  0.00000000
   0.00000000  0.00000000  0.50000000
   0.66666670  0.33333340  0.33333334
   0.66666676  0.33333335  0.83333331
   0.33333336  0.66666680  0.66666669
   0.33333339  0.66666670  0.16666667
   0.00000001  0.56310744  0.25000000
   0.00000001  0.43689260  0.75000003
   0.43689259  0.43689260  0.25000000
   0.56310743  0.56310744  0.75000003
   0.56310742  0.00000000  0.25000000
   0.43689258  0.00000000  0.75000003
   0.66666671  0.89644079  0.58333334
   0.66666668  0.77022590  0.08333334
   0.10355928  0.77022590  0.58333334
   0.22977413  0.89644079  0.08333334
   0.22977413  0.33333335  0.58333334
   0.10355926  0.33333335  0.08333334
   0.33333334  0.22977412  0.91666666
   0.33333335  0.10355926  0.41666669
   0.77022587  0.10355926  0.91666666
   0.89644077  0.22977412  0.41666669
   0.89644077  0.66666670  0.91666666
   0.77022584  0.66666670  0.41666669
 
 position of ions in cartesian coordinates  (Angst):
   0.00000000  0.00000000  3.39376651
   0.00000000  0.00000000 10.18130002
   2.74503535  1.58484698  7.91878869
   2.74503535  1.58484698  1.13125566
   0.00000000  3.16969395 12.44381039
   0.00000000  3.16969395  5.65627784
   0.00000000  0.00000000  0.00000000
   0.00000000  0.00000000  6.78753303
   2.74503536  1.58484721  4.52502218
   2.74503582  1.58484698 11.31255473
  -0.00000024  3.16969442  9.05004435
   0.00000023  3.16969395  2.26251108
  -1.54574976  2.67731726  3.39376651
  -1.19928560  2.07722367 10.18130002
   1.19928557  2.07722367  3.39376651
   1.54574979  2.67731726 10.18130002
   3.09149958 -0.00000000  3.39376651
   2.39857113 -0.00000000 10.18130002
   1.19928569  4.26216423  7.91878869
   1.54574990  3.66207041  1.13125566
  -1.54574956  3.66207041  7.91878869
  -1.19928545  4.26216423  1.13125566
   0.34646440  1.58484698  7.91878869
  -0.34646417  1.58484698  1.13125566
   1.19928553  1.09247040 12.44381039
   1.54574983  0.49237669  5.65627784
   3.94432069  0.49237669 12.44381039
   4.29078515  1.09247040  5.65627784
   3.09149958  3.16969395 12.44381039
   2.39857067  3.16969395  5.65627784
 


--------------------------------------------------------------------------------------------------------


 k-point  1 :   0.0000 0.0000 0.0000  plane waves:    8959
 k-point  2 :   0.1429 0.0000 0.0000  plane waves:    8993
 k-point  3 :   0.2857 0.0000 0.0000  plane waves:    8965
 k-point  4 :   0.4286 0.0000 0.0000  plane waves:    8992
 k-point  5 :   0.1429 0.1429 0.0000  plane waves:    8976
 k-point  6 :   0.2857 0.1429 0.0000  plane waves:    9002
 k-point  7 :   0.4286 0.1429 0.0000  plane waves:    9028
 k-point  8 :   0.2857 0.2857 0.0000  plane waves:    9008
 k-point  9 :   0.0000 0.0000 0.3333  plane waves:    8936
 k-point 10 :   0.1429 0.0000 0.3333  plane waves:    8959
 k-point 11 :   0.2857 0.0000 0.3333  plane waves:    8983
 k-point 12 :   0.4286 0.0000 0.3333  plane waves:    8999
 k-point 13 :  -0.4286-0.0000 0.3333  plane waves:    8999
 k-point 14 :  -0.2857 0.0000 0.3333  plane waves:    8983
 k-point 15 :  -0.1429 0.0000 0.3333  plane waves:    8959
 k-point 16 :   0.1429 0.1429 0.3333  plane waves:    8988
 k-point 17 :   0.2857 0.1429 0.3333  plane waves:    9010
 k-point 18 :   0.4286 0.1429 0.3333  plane waves:    9006
 k-point 19 :  -0.4286 0.1429 0.3333  plane waves:    9010
 k-point 20 :   0.2857 0.2857 0.3333  plane waves:    9034

 maximum and minimum number of plane-waves per node :      9034     8936

 maximum number of plane-waves:      9034
 maximum index in each direction: 
   IXMAX=   10   IYMAX=   10   IZMAX=   24
   IXMIN=  -10   IYMIN=  -10   IZMIN=  -25


 serial   3D FFT for wavefunctions
 parallel 3D FFT for charge:
    minimum data exchange during FFTs selected (reduces bandwidth)


 total amount of memory used by VASP MPI-rank0   138774. kBytes
=======================================================================

   base      :      30000. kBytes
   nonl-proj :      82444. kBytes
   fftplans  :       5344. kBytes
   grid      :       8488. kBytes
   one-center:        466. kBytes
   wavefun   :      12032. kBytes
 
     INWAV:  cpu time    0.0000: real time    0.0000
 Broyden mixing: mesh for mixing (old mesh)
   NGX = 21   NGY = 21   NGZ = 49
  (NGX  = 80   NGY  = 80   NGZ  =200)
  gives a total of  21609 points

 initial charge density was supplied:
 charge density of overlapping atoms calculated
 number of electron     240.0000000 magnetization 
 keeping initial charge density in first step


--------------------------------------------------------------------------------------------------------


 Maximum index for augmentation-charges         4465 (set IRDMAX)


--------------------------------------------------------------------------------------------------------


 First call to EWALD:  gamma=   0.250
 Maximum number of real-space cells 4x 4x 2
 Maximum number of reciprocal cells 2x 2x 5

    FEWALD:  cpu time    0.0023: real time    0.0023


--------------------------------------- Iteration      1(   1)  ---------------------------------------


    POTLOK:  cpu time    0.0374: real time    0.0413
    SETDIJ:  cpu time    0.2360: real time    0.2361
     EDDAV:  cpu time    5.8568: real time    5.8611
       DOS:  cpu time    0.0020: real time    0.0020
    --------------------------------------------
      LOOP:  cpu time    6.1323: real time    6.1406

 eigenvalue-minimisations  :  6400
 total energy-change (2. order) : 0.2318658E+04  (-0.1296133E+05)
 number of electron     240.0000000 magnetization 
 augmentation part      240.0000000 magnetization 

 Free energy of the ion-electron system (eV)
  ---------------------------------------------------
  alpha Z        PSCENC =      1308.59697016
  Ewald energy   TEWEN  =    -17479.70818791
  -Hartree energ DENC   =     -4538.12195862
  -exchange      EXHF   =         0.00000000
  -V(xc)+E(xc)   XCENC  =      1072.29340276
  PAW double counting   =     17195.35790452   -17070.95735297
  entropy T*S    EENTRO =        -0.00046342
  eigenvalues    EBANDS =       112.56854214
  atomic energy  EATOM  =     21718.62876192
  Solvation  Ediel_sol  =         0.00000000
  ---------------------------------------------------
  free energy    TOTEN  =      2318.65761859 eV

  energy without entropy =     2318.65808200  energy(sigma->0) =     2318.65785029


--------------------------------------------------------------------------------------------------------




--------------------------------------- Iteration      1(   2)  ---------------------------------------


     EDDAV:  cpu time    7.9020: real time    7.9068
       DOS:  cpu time    0.0011: real time    0.0011
    --------------------------------------------
      LOOP:  cpu time    7.9031: real time    7.9079

 eigenvalue-minimisations  :  8800
 total energy-change (2. order) :-0.2456667E+04  (-0.2372157E+04)
 number of electron     240.0000000 magnetization 
 augmentation part      240.0000000 magnetization 

 Free energy of the ion-electron system (eV)
  ---------------------------------------------------
  alpha Z        PSCENC =      1308.59697016
  Ewald energy   TEWEN  =    -17479.70818791
  -Hartree energ DENC   =     -4538.12195862
  -exchange      EXHF   =         0.00000000
  -V(xc)+E(xc)   XCENC  =      1072.29340276
  PAW double counting   =     17195.35790452   -17070.95735297
  entropy T*S    EENTRO =        -0.00000000
  eigenvalues    EBANDS =     -2344.09867206
  atomic energy  EATOM  =     21718.62876192
  Solvation  Ediel_sol  =         0.00000000
  ---------------------------------------------------
  free energy    TOTEN  =      -138.00913220 eV

  energy without entropy =     -138.00913220  energy(sigma->0) =     -138.00913220


--------------------------------------------------------------------------------------------------------




--------------------------------------- Iteration      1(   3)  ---------------------------------------


     EDDAV:  cpu time    8.6662: real time    8.6713
       DOS:  cpu time    0.0012: real time    0.0012
    --------------------------------------------
      LOOP:  cpu time    8.6674: real time    8.6724

 eigenvalue-minimisations  :  9600
 total energy-change (2. order) :-0.1466270E+03  (-0.1456182E+03)
 number of electron     240.0000000 magnetization 
 augmentation part      240.0000000 magnetization 

 Free energy of the ion-electron system (eV)
  ---------------------------------------------------
  alpha Z        PSCENC =      1308.59697016
  Ewald energy   TEWEN  =    -17479.70818791
  -Hartree energ DENC   =     -4538.12195862
  -exchange      EXHF   =         0.00000000
  -V(xc)+E(xc)   XCENC  =      1072.29340276
  PAW double counting   =     17195.35790452   -17070.95735297
  entropy T*S    EENTRO =        -0.00000000
  eigenvalues    EBANDS =     -2490.72565957
  atomic energy  EATOM  =     21718.62876192
  Solvation  Ediel_sol  =         0.00000000
  ---------------------------------------------------
  free energy    TOTEN  =      -284.63611971 eV

  energy without entropy =     -284.63611971  energy(sigma->0) =     -284.63611971


--------------------------------------------------------------------------------------------------------




--------------------------------------- Iteration      1(   4)  ---------------------------------------


     EDDAV:  cpu time   10.0918: real time   10.1036
       DOS:  cpu time    0.0011: real time    0.0011
    --------------------------------------------
      LOOP:  cpu time   10.0930: real time   10.1048

 eigenvalue-minimisations  : 11200
 total energy-change (2. order) :-0.8555030E+01  (-0.8534723E+01)
 number of electron     240.0000000 magnetization 
 augmentation part      240.0000000 magnetization 

 Free energy of the ion-electron system (eV)
  ---------------------------------------------------
  alpha Z        PSCENC =      1308.59697016
  Ewald energy   TEWEN  =    -17479.70818791
  -Hartree energ DENC   =     -4538.12195862
  -exchange      EXHF   =         0.00000000
  -V(xc)+E(xc)   XCENC  =      1072.29340276
  PAW double counting   =     17195.35790452   -17070.95735297
  entropy T*S    EENTRO =        -0.00000000
  eigenvalues    EBANDS =     -2499.28068957
  atomic energy  EATOM  =     21718.62876192
  Solvation  Ediel_sol  =         0.00000000
  ---------------------------------------------------
  free energy    TOTEN  =      -293.19114971 eV

  energy without entropy =     -293.19114971  energy(sigma->0) =     -293.19114971


--------------------------------------------------------------------------------------------------------




--------------------------------------- Iteration      1(   5)  ---------------------------------------


     EDDAV:  cpu time    8.7541: real time    8.7618
       DOS:  cpu time    0.0012: real time    0.0012
    CHARGE:  cpu time    0.2908: real time    0.2911
    MIXING:  cpu time    0.0010: real time    0.0011
    --------------------------------------------
      LOOP:  cpu time    9.0471: real time    9.0551

 eigenvalue-minimisations  :  9760
 total energy-change (2. order) :-0.1427701E+00  (-0.1427556E+00)
 number of electron     240.0000003 magnetization 
 augmentation part       30.7971403 magnetization 

 Broyden mixing:
  rms(total) = 0.48510E+01    rms(broyden)= 0.48504E+01
  rms(prec ) = 0.56346E+01
  weight for this iteration     100.00

 Free energy of the ion-electron system (eV)
  ---------------------------------------------------
  alpha Z        PSCENC =      1308.59697016
  Ewald energy   TEWEN  =    -17479.70818791
  -Hartree energ DENC   =     -4538.12195862
  -exchange      EXHF   =         0.00000000
  -V(xc)+E(xc)   XCENC  =      1072.29340276
  PAW double counting   =     17195.35790452   -17070.95735297
  entropy T*S    EENTRO =        -0.00000000
  eigenvalues    EBANDS =     -2499.42345967
  atomic energy  EATOM  =     21718.62876192
  Solvation  Ediel_sol  =         0.00000000
  ---------------------------------------------------
  free energy    TOTEN  =      -293.33391980 eV

  energy without entropy =     -293.33391980  energy(sigma->0) =     -293.33391980


--------------------------------------------------------------------------------------------------------




--------------------------------------- Iteration      1(   6)  ---------------------------------------


    POTLOK:  cpu time    0.0335: real time    0.0341
    SETDIJ:  cpu time    0.2328: real time    0.2328
     EDDAV:  cpu time    8.5277: real time    8.5344
       DOS:  cpu time    0.0017: real time    0.0017
    CHARGE:  cpu time    0.2878: real time    0.2881
    MIXING:  cpu time    0.0015: real time    0.0015
    --------------------------------------------
      LOOP:  cpu time    9.0850: real time    9.0926

 eigenvalue-minimisations  :  9640
 total energy-change (2. order) : 0.5103787E+02  (-0.2196556E+02)
 number of electron     240.0000002 magnetization 
 augmentation part       28.3093656 magnetization 

 Broyden mixing:
  rms(total) = 0.23811E+01    rms(broyden)= 0.23801E+01
  rms(prec ) = 0.24742E+01
  weight for this iteration     100.00

 eigenvalues of (default mixing * dielectric matrix)
  average eigenvalue GAMMA=   0.7957
  0.7957

 Free energy of the ion-electron system (eV)
  ---------------------------------------------------
  alpha Z        PSCENC =      1308.59697016
  Ewald energy   TEWEN  =    -17479.70818791
  -Hartree energ DENC   =     -4644.67523917
  -exchange      EXHF   =         0.00000000
  -V(xc)+E(xc)   XCENC  =      1086.83170595
  PAW double counting   =     19102.24117434   -18996.05032567
  entropy T*S    EENTRO =        -0.00000000
  eigenvalues    EBANDS =     -2338.16090611
  atomic energy  EATOM  =     21718.62876192
  Solvation  Ediel_sol  =         0.00000000
  ---------------------------------------------------
  free energy    TOTEN  =      -242.29604649 eV

  energy without entropy =     -242.29604649  energy(sigma->0) =     -242.29604649


--------------------------------------------------------------------------------------------------------




--------------------------------------- Iteration      1(   7)  ---------------------------------------


    POTLOK:  cpu time    0.0334: real time    0.0339
    SETDIJ:  cpu time    0.2328: real time    0.2329
     EDDAV:  cpu time    8.9481: real time    8.9563
       DOS:  cpu time    0.0017: real time    0.0017
    CHARGE:  cpu time    0.2886: real time    0.2886
    MIXING:  cpu time    0.0010: real time    0.0010
    --------------------------------------------
      LOOP:  cpu time    9.5057: real time    9.5145

 eigenvalue-minimisations  : 10160
 total energy-change (2. order) : 0.8075982E+00  (-0.1922508E+01)
 number of electron     240.0000002 magnetization 
 augmentation part       27.8004791 magnetization 

 Broyden mixing:
  rms(total) = 0.13942E+01    rms(broyden)= 0.13942E+01
  rms(prec ) = 0.14267E+01
  weight for this iteration     100.00

 eigenvalues of (default mixing * dielectric matrix)
  average eigenvalue GAMMA=   1.6158
  0.8204  2.4111

 Free energy of the ion-electron system (eV)
  ---------------------------------------------------
  alpha Z        PSCENC =      1308.59697016
  Ewald energy   TEWEN  =    -17479.70818791
  -Hartree energ DENC   =     -4602.72751132
  -exchange      EXHF   =         0.00000000
  -V(xc)+E(xc)   XCENC  =      1082.82115597
  PAW double counting   =     19876.85526202   -19766.38899586
  entropy T*S    EENTRO =        -0.00000000
  eigenvalues    EBANDS =     -2379.56590331
  atomic energy  EATOM  =     21718.62876192
  Solvation  Ediel_sol  =         0.00000000
  ---------------------------------------------------
  free energy    TOTEN  =      -241.48844833 eV

  energy without entropy =     -241.48844833  energy(sigma->0) =     -241.48844833


--------------------------------------------------------------------------------------------------------




--------------------------------------- Iteration      1(   8)  ---------------------------------------


    POTLOK:  cpu time    0.0333: real time    0.0339
    SETDIJ:  cpu time    0.2319: real time    0.2322
     EDDAV:  cpu time    9.8216: real time    9.8283
       DOS:  cpu time    0.0018: real time    0.0017
    CHARGE:  cpu time    0.2885: real time    0.2888
    MIXING:  cpu time    0.0010: real time    0.0010
    --------------------------------------------
      LOOP:  cpu time   10.3781: real time   10.3859

 eigenvalue-minimisations  : 10960
 total energy-change (2. order) : 0.1023854E+00  (-0.2742607E+00)
 number of electron     240.0000002 magnetization 
 augmentation part       27.7245945 magnetization 

 Broyden mixing:
  rms(total) = 0.30483E+00    rms(broyden)= 0.30482E+00
  rms(prec ) = 0.34408E+00
  weight for this iteration     100.00

 eigenvalues of (default mixing * dielectric matrix)
  average eigenvalue GAMMA=   1.3107
  1.9497  1.2093  0.7732

 Free energy of the ion-electron system (eV)
  ---------------------------------------------------
  alpha Z        PSCENC =      1308.59697016
  Ewald energy   TEWEN  =    -17479.70818791
  -Hartree energ DENC   =     -4571.75324493
  -exchange      EXHF   =         0.00000000
  -V(xc)+E(xc)   XCENC  =      1081.16451093
  PAW double counting   =     22030.22922472   -21903.49462465
  entropy T*S    EENTRO =        -0.00000000
  eigenvalues    EBANDS =     -2425.04947318
  atomic energy  EATOM  =     21718.62876192
  Solvation  Ediel_sol  =         0.00000000
  ---------------------------------------------------
  free energy    TOTEN  =      -241.38606294 eV

  energy without entropy =     -241.38606294  energy(sigma->0) =     -241.38606294


--------------------------------------------------------------------------------------------------------




--------------------------------------- Iteration      1(   9)  ---------------------------------------


    POTLOK:  cpu time    0.0338: real time    0.0362
    SETDIJ:  cpu time    0.2320: real time    0.2320
     EDDAV:  cpu time    8.1718: real time    8.1744
       DOS:  cpu time    0.0017: real time    0.0017
    CHARGE:  cpu time    0.2878: real time    0.2878
    MIXING:  cpu time    0.0010: real time    0.0010
    --------------------------------------------
      LOOP:  cpu time    8.7281: real time    8.7332

 eigenvalue-minimisations  :  9400
 total energy-change (2. order) : 0.1197986E+00  (-0.3894605E-01)
 number of electron     240.0000002 magnetization 
 augmentation part       27.6300325 magnetization 

 Broyden mixing:
  rms(total) = 0.13972E+00    rms(broyden)= 0.13971E+00
  rms(prec ) = 0.14990E+00
  weight for this iteration     100.00

 eigenvalues of (default mixing * dielectric matrix)
  average eigenvalue GAMMA=   1.5779
  2.7921  0.7504  1.0480  1.7210

 Free energy of the ion-electron system (eV)
  ---------------------------------------------------
  alpha Z        PSCENC =      1308.59697016
  Ewald energy   TEWEN  =    -17479.70818791
  -Hartree energ DENC   =     -4588.62167885
  -exchange      EXHF   =         0.00000000
  -V(xc)+E(xc)   XCENC  =      1081.77973915
  PAW double counting   =     21765.20541911   -21637.16139776
  entropy T*S    EENTRO =        -0.00000000
  eigenvalues    EBANDS =     -2409.98589017
  atomic energy  EATOM  =     21718.62876192
  Solvation  Ediel_sol  =         0.00000000
  ---------------------------------------------------
  free energy    TOTEN  =      -241.26626435 eV

  energy without entropy =     -241.26626435  energy(sigma->0) =     -241.26626435


--------------------------------------------------------------------------------------------------------




--------------------------------------- Iteration      1(  10)  ---------------------------------------


    POTLOK:  cpu time    0.0331: real time    0.0339
    SETDIJ:  cpu time    0.2326: real time    0.2327
     EDDAV:  cpu time    7.3472: real time    7.3543
       DOS:  cpu time    0.0018: real time    0.0018
    CHARGE:  cpu time    0.2885: real time    0.2885
    MIXING:  cpu time    0.0011: real time    0.0011
    --------------------------------------------
      LOOP:  cpu time    7.9043: real time    7.9122

 eigenvalue-minimisations  :  8120
 total energy-change (2. order) :-0.4510220E-02  (-0.9863935E-02)
 number of electron     240.0000002 magnetization 
 augmentation part       27.5783477 magnetization 

 Broyden mixing:
  rms(total) = 0.31029E-01    rms(broyden)= 0.31019E-01
  rms(prec ) = 0.35766E-01
  weight for this iteration     100.00

 eigenvalues of (default mixing * dielectric matrix)
  average eigenvalue GAMMA=   1.3966
  2.4355  1.6855  1.0580  1.0580  0.7461

 Free energy of the ion-electron system (eV)
  ---------------------------------------------------
  alpha Z        PSCENC =      1308.59697016
  Ewald energy   TEWEN  =    -17479.70818791
  -Hartree energ DENC   =     -4604.74207070
  -exchange      EXHF   =         0.00000000
  -V(xc)+E(xc)   XCENC  =      1082.70079572
  PAW double counting   =     22006.35047553   -21872.46481795
  entropy T*S    EENTRO =        -0.00000000
  eigenvalues    EBANDS =     -2400.63270135
  atomic energy  EATOM  =     21718.62876192
  Solvation  Ediel_sol  =         0.00000000
  ---------------------------------------------------
  free energy    TOTEN  =      -241.27077457 eV

  energy without entropy =     -241.27077457  energy(sigma->0) =     -241.27077457


--------------------------------------------------------------------------------------------------------




--------------------------------------- Iteration      1(  11)  ---------------------------------------


    POTLOK:  cpu time    0.0334: real time    0.0339
    SETDIJ:  cpu time    0.2319: real time    0.2323
     EDDAV:  cpu time    8.8349: real time    8.8480
       DOS:  cpu time    0.0017: real time    0.0017
    CHARGE:  cpu time    0.2882: real time    0.2885
    MIXING:  cpu time    0.0011: real time    0.0011
    --------------------------------------------
      LOOP:  cpu time    9.3912: real time    9.4056

 eigenvalue-minimisations  : 10000
 total energy-change (2. order) : 0.1726165E-02  (-0.1008571E-02)
 number of electron     240.0000002 magnetization 
 augmentation part       27.5933825 magnetization 

 Broyden mixing:
  rms(total) = 0.93378E-02    rms(broyden)= 0.93310E-02
  rms(prec ) = 0.10144E-01
  weight for this iteration     100.00

 eigenvalues of (default mixing * dielectric matrix)
  average eigenvalue GAMMA=   1.3422
  2.2941  1.9696  1.1418  1.1418  0.7883  0.7178

 Free energy of the ion-electron system (eV)
  ---------------------------------------------------
  alpha Z        PSCENC =      1308.59697016
  Ewald energy   TEWEN  =    -17479.70818791
  -Hartree energ DENC   =     -4601.62937130
  -exchange      EXHF   =         0.00000000
  -V(xc)+E(xc)   XCENC  =      1082.49159424
  PAW double counting   =     21970.86003250   -21837.51585694
  entropy T*S    EENTRO =        -0.00000000
  eigenvalues    EBANDS =     -2402.99299108
  atomic energy  EATOM  =     21718.62876192
  Solvation  Ediel_sol  =         0.00000000
  ---------------------------------------------------
  free energy    TOTEN  =      -241.26904840 eV

  energy without entropy =     -241.26904840  energy(sigma->0) =     -241.26904840


--------------------------------------------------------------------------------------------------------




--------------------------------------- Iteration      1(  12)  ---------------------------------------


    POTLOK:  cpu time    0.0332: real time    0.0332
    SETDIJ:  cpu time    0.2318: real time    0.2319
     EDDAV:  cpu time    9.5160: real time    9.5229
       DOS:  cpu time    0.0017: real time    0.0017
    CHARGE:  cpu time    0.2870: real time    0.2871
    MIXING:  cpu time    0.0017: real time    0.0017
    --------------------------------------------
      LOOP:  cpu time   10.0715: real time   10.0785

 eigenvalue-minimisations  : 10720
 total energy-change (2. order) :-0.4034808E-04  (-0.3912484E-04)
 number of electron     240.0000002 magnetization 
 augmentation part       27.5933295 magnetization 

 Broyden mixing:
  rms(total) = 0.67037E-02    rms(broyden)= 0.67034E-02
  rms(prec ) = 0.72250E-02
  weight for this iteration     100.00

 eigenvalues of (default mixing * dielectric matrix)
  average eigenvalue GAMMA=   1.4890
  2.7213  2.4264  1.2869  1.2869  0.7381  0.9818  0.9818

 Free energy of the ion-electron system (eV)
  ---------------------------------------------------
  alpha Z        PSCENC =      1308.59697016
  Ewald energy   TEWEN  =    -17479.70818791
  -Hartree energ DENC   =     -4601.68209583
  -exchange      EXHF   =         0.00000000
  -V(xc)+E(xc)   XCENC  =      1082.49796964
  PAW double counting   =     21963.37680443   -21829.87694622
  entropy T*S    EENTRO =        -0.00000000
  eigenvalues    EBANDS =     -2403.10236494
  atomic energy  EATOM  =     21718.62876192
  Solvation  Ediel_sol  =         0.00000000
  ---------------------------------------------------
  free energy    TOTEN  =      -241.26908875 eV

  energy without entropy =     -241.26908875  energy(sigma->0) =     -241.26908875


--------------------------------------------------------------------------------------------------------




--------------------------------------- Iteration      1(  13)  ---------------------------------------


    POTLOK:  cpu time    0.0339: real time    0.0364
    SETDIJ:  cpu time    0.2320: real time    0.2321
     EDDAV:  cpu time    8.5690: real time    8.5740
       DOS:  cpu time    0.0017: real time    0.0017
    CHARGE:  cpu time    0.2872: real time    0.2873
    MIXING:  cpu time    0.0016: real time    0.0016
    --------------------------------------------
      LOOP:  cpu time    9.1255: real time    9.1331

 eigenvalue-minimisations  :  9720
 total energy-change (2. order) :-0.9254052E-04  (-0.1745981E-04)
 number of electron     240.0000002 magnetization 
 augmentation part       27.5921828 magnetization 

 Broyden mixing:
  rms(total) = 0.20643E-02    rms(broyden)= 0.20639E-02
  rms(prec ) = 0.21692E-02
  weight for this iteration     100.00

 eigenvalues of (default mixing * dielectric matrix)
  average eigenvalue GAMMA=   1.5184
  2.7030  2.1406  2.1406  1.5070  0.7394  0.9852  0.9658  0.9658

 Free energy of the ion-electron system (eV)
  ---------------------------------------------------
  alpha Z        PSCENC =      1308.59697016
  Ewald energy   TEWEN  =    -17479.70818791
  -Hartree energ DENC   =     -4602.35454078
  -exchange      EXHF   =         0.00000000
  -V(xc)+E(xc)   XCENC  =      1082.53617126
  PAW double counting   =     21964.00778065   -21830.05030607
  entropy T*S    EENTRO =        -0.00000000
  eigenvalues    EBANDS =     -2402.92583052
  atomic energy  EATOM  =     21718.62876192
  Solvation  Ediel_sol  =         0.00000000
  ---------------------------------------------------
  free energy    TOTEN  =      -241.26918129 eV

  energy without entropy =     -241.26918129  energy(sigma->0) =     -241.26918129


--------------------------------------------------------------------------------------------------------




--------------------------------------- Iteration      1(  14)  ---------------------------------------


    POTLOK:  cpu time    0.0332: real time    0.0338
    SETDIJ:  cpu time    0.2325: real time    0.2325
     EDDAV:  cpu time    8.4745: real time    8.4774
       DOS:  cpu time    0.0018: real time    0.0018
    CHARGE:  cpu time    0.2872: real time    0.2873
    MIXING:  cpu time    0.0019: real time    0.0019
    --------------------------------------------
      LOOP:  cpu time    9.0311: real time    9.0346

 eigenvalue-minimisations  :  9600
 total energy-change (2. order) : 0.2829602E-05  (-0.2525898E-05)
 number of electron     240.0000002 magnetization 
 augmentation part       27.5920786 magnetization 

 Broyden mixing:
  rms(total) = 0.84505E-03    rms(broyden)= 0.84424E-03
  rms(prec ) = 0.86121E-03
  weight for this iteration     100.00

 eigenvalues of (default mixing * dielectric matrix)
  average eigenvalue GAMMA=   1.5244
  2.6030  2.6030  2.1274  1.5849  0.7396  1.0752  1.0752  0.9560  0.9560

 Free energy of the ion-electron system (eV)
  ---------------------------------------------------
  alpha Z        PSCENC =      1308.59697016
  Ewald energy   TEWEN  =    -17479.70818791
  -Hartree energ DENC   =     -4602.19646383
  -exchange      EXHF   =         0.00000000
  -V(xc)+E(xc)   XCENC  =      1082.52703555
  PAW double counting   =     21962.52584931   -21828.58698922
  entropy T*S    EENTRO =        -0.00000000
  eigenvalues    EBANDS =     -2403.05615445
  atomic energy  EATOM  =     21718.62876192
  Solvation  Ediel_sol  =         0.00000000
  ---------------------------------------------------
  free energy    TOTEN  =      -241.26917846 eV

  energy without entropy =     -241.26917846  energy(sigma->0) =     -241.26917846


--------------------------------------------------------------------------------------------------------




--------------------------------------- Iteration      1(  15)  ---------------------------------------


    POTLOK:  cpu time    0.0333: real time    0.0340
    SETDIJ:  cpu time    0.2313: real time    0.2313
     EDDAV:  cpu time    6.7856: real time    6.7883
       DOS:  cpu time    0.0018: real time    0.0017
    --------------------------------------------
      LOOP:  cpu time    7.0519: real time    7.0552

 eigenvalue-minimisations  :  7360
 total energy-change (2. order) : 0.3827081E-06  (-0.1712065E-06)
 number of electron     240.0000002 magnetization 
 augmentation part       27.5920786 magnetization 

 Free energy of the ion-electron system (eV)
  ---------------------------------------------------
  alpha Z        PSCENC =      1308.59697016
  Ewald energy   TEWEN  =    -17479.70818791
  -Hartree energ DENC   =     -4602.21082963
  -exchange      EXHF   =         0.00000000
  -V(xc)+E(xc)   XCENC  =      1082.52841320
  PAW double counting   =     21960.99537327   -21827.05185548
  entropy T*S    EENTRO =        -0.00000000
  eigenvalues    EBANDS =     -2403.04782362
  atomic energy  EATOM  =     21718.62876192
  Solvation  Ediel_sol  =         0.00000000
  ---------------------------------------------------
  free energy    TOTEN  =      -241.26917808 eV

  energy without entropy =     -241.26917808  energy(sigma->0) =     -241.26917808


--------------------------------------------------------------------------------------------------------




 average (electrostatic) potential at core
  the test charge radii are     1.1045  1.0703  0.7215
  (the norm of the test charge is              1.0000)
       1 -29.8141       2 -29.8142       3 -29.8141       4 -29.8141       5 -29.8141
       6 -29.8141       7 -84.5047       8 -84.5047       9 -84.5047      10 -84.5048
      11 -84.5047      12 -84.5047      13 -69.7539      14 -69.7540      15 -69.7539
      16 -69.7540      17 -69.7539      18 -69.7540      19 -69.7539      20 -69.7539
      21 -69.7539      22 -69.7539      23 -69.7539      24 -69.7539      25 -69.7539
      26 -69.7539      27 -69.7540      28 -69.7539      29 -69.7539      30 -69.7539
 
 
 
 E-fermi :   3.8413     XC(G=0): -11.5254     alpha+bet :-13.9349


 k-point     1 :       0.0000    0.0000    0.0000
  band No.  band energies     occupation 
      1     -50.7990      2.00000
      2     -50.7962      2.00000
      3     -50.7962      2.00000
      4     -50.7908      2.00000
      5     -50.7908      2.00000
      6     -50.7881      2.00000
      7     -27.1064      2.00000
      8     -27.1064      2.00000
      9     -27.1025      2.00000
     10     -27.0669      2.00000
     11     -27.0669      2.00000
     12     -27.0669      2.00000
     13     -27.0669      2.00000
     14     -27.0651      2.00000
     15     -27.0651      2.00000
     16     -26.9857      2.00000
     17     -26.9857      2.00000
     18     -26.9857      2.00000
     19     -26.9857      2.00000
     20     -26.9846      2.00000
     21     -26.9846      2.00000
     22     -26.9439      2.00000
     23     -26.9439      2.00000
     24     -26.9392      2.00000
     25     -22.8556      2.00000
     26     -22.8214      2.00000
     27     -22.8214      2.00000
     28     -22.7753      2.00000
     29     -22.7753      2.00000
     30     -22.7561      2.00000
     31     -13.4074      2.00000
     32     -13.1236      2.00000
     33     -13.1236      2.00000
     34     -13.0864      2.00000
     35     -13.0864      2.00000
     36     -12.8298      2.00000
     37     -12.8298      2.00000
     38     -12.8298      2.00000
     39     -12.8298      2.00000
     40     -12.3565      2.00000
     41     -12.3564      2.00000
     42     -12.2509      2.00000
     43     -12.2509      2.00000
     44     -12.2509      2.00000
     45     -12.2509      2.00000
     46     -11.9155      2.00000
     47     -11.9155      2.00000
     48     -11.8443      2.00000
     49      -6.9045      2.00000
     50      -6.8685      2.00000
     51      -6.8685      2.00000
     52      -6.7134      2.00000
     53      -6.7134      2.00000
     54      -6.7134      2.00000
     55      -6.7133      2.00000
     56      -6.5326      2.00000
     57      -6.5326      2.00000
     58      -6.5326      2.00000
     59      -6.5326      2.00000
     60      -6.5237      2.00000
     61      -6.5237      2.00000
     62      -6.5046      2.00000
     63      -6.5046      2.00000
     64      -6.4893      2.00000
     65      -6.3591      2.00000
     66      -6.3591      2.00000
     67      -1.6611      2.00000
     68      -1.6611      2.00000
     69      -0.8679      2.00000
     70      -0.8679      2.00000
     71      -0.8679      2.00000
     72      -0.8679      2.00000
     73      -0.6608      2.00000
     74      -0.2197      2.00000
     75      -0.2197      2.00000
     76      -0.0923      2.00000
     77      -0.0103      2.00000
     78      -0.0103      2.00000
     79       0.1360      2.00000
     80       0.1360      2.00000
     81       0.3330      2.00000
     82       0.3330      2.00000
     83       0.3330      2.00000
     84       0.3330      2.00000
[...]
     -1.545750  2.677317  3.393767     0.118253    0.083438    0.042325  
     -1.199286  2.077224 10.181300    -0.113733   -0.089631   -0.041312  
      1.199286  2.077224  3.393767     0.120676    0.087084   -0.020850  
      1.545750  2.677317 10.181300    -0.116511   -0.093013    0.012717  
      3.091500 -0.000000  3.393767     0.122622    0.083163   -0.021475  
      2.398571 -0.000000 10.181300    -0.118051   -0.088916    0.028595  
      1.199286  4.262164  7.918789    -0.033845   -0.089634   -0.016406  
      1.545750  3.662070  1.131256     0.094602    0.006214    0.029906  
     -1.545750  3.662070  7.918789    -0.037684   -0.089804   -0.045416  
     -1.199285  4.262164  1.131256     0.093642    0.009935   -0.063998  
      0.346464  1.584847  7.918789    -0.035912   -0.086394    0.061822  
     -0.346464  1.584847  1.131256     0.097345    0.008905    0.034092  
      1.199286  1.092470 12.443810    -0.084409    0.006196   -0.025919  
      1.545750  0.492377  5.656278     0.019131    0.083418    0.011406  
      3.944321  0.492377 12.443810    -0.082991    0.002720    0.066266  
      4.290785  1.092470  5.656278     0.022869    0.083078    0.051282  
      3.091500  3.169694 12.443810    -0.086710    0.003231   -0.040347  
      2.398571  3.169694  5.656278     0.020706    0.080011   -0.062687  
 
  85 f  =    0.000775 THz     0.004868 2PiTHz    0.025842 cm-1     0.003204 meV
             X         Y         Z           dx          dy          dz
      0.000000  0.000000  3.393767     0.000000    0.000000   -0.190311  
      0.000000  0.000000 10.181300     0.000000    0.000000   -0.190311  
      2.745035  1.584847  7.918789     0.000000    0.000000   -0.190311  
      2.745035  1.584847  1.131256     0.000000    0.000000   -0.190311  
      0.000000  3.169694 12.443810     0.000000    0.000000   -0.190311  
      0.000000  3.169694  5.656278     0.000000    0.000000   -0.190311  
      0.000000  0.000000  0.000000     0.000000    0.000000   -0.293346  
      0.000000  0.000000  6.787533     0.000000    0.000000   -0.293346  
      2.745035  1.584847  4.525022     0.000000    0.000000   -0.293346  
      2.745036  1.584847 11.312555     0.000000    0.000000   -0.293346  
     -0.000000  3.169694  9.050044     0.000000    0.000000   -0.293346  
      0.000000  3.169694  2.262511     0.000000    0.000000   -0.293346  
     -1.545750  2.677317  3.393767     0.000004    0.000003   -0.121651  
     -1.199286  2.077224 10.181300     0.000004    0.000003   -0.121651  
      1.199286  2.077224  3.393767    -0.000004    0.000003   -0.121651  
      1.545750  2.677317 10.181300    -0.000004    0.000003   -0.121651  
      3.091500 -0.000000  3.393767     0.000000   -0.000005   -0.121651  
      2.398571 -0.000000 10.181300     0.000000   -0.000005   -0.121651  
      1.199286  4.262164  7.918789     0.000004    0.000003   -0.121651  
      1.545750  3.662070  1.131256     0.000004    0.000003   -0.121651  
     -1.545750  3.662070  7.918789    -0.000004    0.000003   -0.121651  
     -1.199285  4.262164  1.131256    -0.000004    0.000003   -0.121651  
      0.346464  1.584847  7.918789     0.000000   -0.000005   -0.121651  
     -0.346464  1.584847  1.131256     0.000000   -0.000005   -0.121651  
      1.199286  1.092470 12.443810     0.000004    0.000003   -0.121651  
      1.545750  0.492377  5.656278     0.000004    0.000003   -0.121651  
      3.944321  0.492377 12.443810    -0.000004    0.000003   -0.121651  
      4.290785  1.092470  5.656278    -0.000004    0.000003   -0.121651  
      3.091500  3.169694 12.443810     0.000000   -0.000005   -0.121651  
      2.398571  3.169694  5.656278     0.000000   -0.000005   -0.121651  
 
  86 f/i=    0.009940 THz     0.062453 2PiTHz    0.331553 cm-1     0.041107 meV
             X         Y         Z           dx          dy          dz
      0.000000  0.000000  3.393767    -0.024087    0.188446    0.000000  
      0.000000  0.000000 10.181300    -0.024087    0.188446    0.000000  
      2.745035  1.584847  7.918789    -0.024087    0.188446    0.000000  
      2.745035  1.584847  1.131256    -0.024087    0.188446    0.000000  
      0.000000  3.169694 12.443810    -0.024087    0.188446    0.000000  
      0.000000  3.169694  5.656278    -0.024087    0.188446    0.000000  
      0.000000  0.000000  0.000000    -0.037323    0.291109    0.000000  
      0.000000  0.000000  6.787533    -0.037098    0.291137    0.000000  
      2.745035  1.584847  4.525022    -0.037323    0.291109    0.000000  
      2.745036  1.584847 11.312555    -0.037098    0.291137    0.000000  
     -0.000000  3.169694  9.050044    -0.037323    0.291109    0.000000  
      0.000000  3.169694  2.262511    -0.037098    0.291137    0.000000  
     -1.545750  2.677317  3.393767    -0.015335    0.120651   -0.000038  
     -1.199286  2.077224 10.181300    -0.015335    0.120651   -0.000038  
      1.199286  2.077224  3.393767    -0.015541    0.120678   -0.000060  
      1.545750  2.677317 10.181300    -0.015541    0.120678   -0.000060  
      3.091500 -0.000000  3.393767    -0.015415    0.120843    0.000098  
      2.398571 -0.000000 10.181300    -0.015415    0.120843    0.000098  
      1.199286  4.262164  7.918789    -0.015335    0.120651   -0.000038  
      1.545750  3.662070  1.131256    -0.015335    0.120651   -0.000038  
     -1.545750  3.662070  7.918789    -0.015541    0.120678   -0.000060  
     -1.199285  4.262164  1.131256    -0.015541    0.120678   -0.000060  
      0.346464  1.584847  7.918789    -0.015415    0.120843    0.000098  
     -0.346464  1.584847  1.131256    -0.015415    0.120843    0.000098  
      1.199286  1.092470 12.443810    -0.015335    0.120651   -0.000038  
      1.545750  0.492377  5.656278    -0.015335    0.120651   -0.000038  
      3.944321  0.492377 12.443810    -0.015541    0.120678   -0.000060  
      4.290785  1.092470  5.656278    -0.015541    0.120678   -0.000060  
      3.091500  3.169694 12.443810    -0.015415    0.120843    0.000098  
      2.398571  3.169694  5.656278    -0.015415    0.120843    0.000098  
 
  87 f/i=    0.009940 THz     0.062453 2PiTHz    0.331553 cm-1     0.041107 meV
             X         Y         Z           dx          dy          dz
      0.000000  0.000000  3.393767    -0.188446   -0.024087   -0.000000  
      0.000000  0.000000 10.181300    -0.188446   -0.024087   -0.000000  
      2.745035  1.584847  7.918789    -0.188446   -0.024087   -0.000000  
      2.745035  1.584847  1.131256    -0.188446   -0.024087   -0.000000  
      0.000000  3.169694 12.443810    -0.188446   -0.024087   -0.000000  
      0.000000  3.169694  5.656278    -0.188446   -0.024087   -0.000000  
      0.000000  0.000000  0.000000    -0.291109   -0.037323   -0.000000  
      0.000000  0.000000  6.787533    -0.291137   -0.037098   -0.000000  
      2.745035  1.584847  4.525022    -0.291109   -0.037323   -0.000000  
      2.745036  1.584847 11.312555    -0.291137   -0.037098   -0.000000  
     -0.000000  3.169694  9.050044    -0.291109   -0.037323   -0.000000  
      0.000000  3.169694  2.262511    -0.291137   -0.037098   -0.000000  
     -1.545750  2.677317  3.393767    -0.120797   -0.015526    0.000091  
     -1.199286  2.077224 10.181300    -0.120797   -0.015526    0.000091  
      1.199286  2.077224  3.393767    -0.120771   -0.015320   -0.000078  
      1.545750  2.677317 10.181300    -0.120771   -0.015320   -0.000078  
      3.091500 -0.000000  3.393767    -0.120605   -0.015446   -0.000013  
      2.398571 -0.000000 10.181300    -0.120605   -0.015446   -0.000013  
      1.199286  4.262164  7.918789    -0.120797   -0.015526    0.000091  
      1.545750  3.662070  1.131256    -0.120797   -0.015526    0.000091  
     -1.545750  3.662070  7.918789    -0.120771   -0.015320   -0.000078  
     -1.199285  4.262164  1.131256    -0.120771   -0.015320   -0.000078  
      0.346464  1.584847  7.918789    -0.120605   -0.015446   -0.000013  
     -0.346464  1.584847  1.131256    -0.120605   -0.015446   -0.000013  
      1.199286  1.092470 12.443810    -0.120797   -0.015526    0.000091  
      1.545750  0.492377  5.656278    -0.120797   -0.015526    0.000091  
      3.944321  0.492377 12.443810    -0.120771   -0.015320   -0.000078  
      4.290785  1.092470  5.656278    -0.120771   -0.015320   -0.000078  
      3.091500  3.169694 12.443810    -0.120605   -0.015446   -0.000013  
      2.398571  3.169694  5.656278    -0.120605   -0.015446   -0.000013  
 
  88 f/i=    3.013051 THz    18.931558 2PiTHz  100.504560 cm-1    12.460982 meV
             X         Y         Z           dx          dy          dz
      0.000000  0.000000  3.393767    -0.074729   -0.055447    0.000000  
      0.000000  0.000000 10.181300    -0.074729   -0.055447   -0.000000  
      2.745035  1.584847  7.918789    -0.074729   -0.055447    0.000000  
      2.745035  1.584847  1.131256    -0.074729   -0.055447   -0.000000  
      0.000000  3.169694 12.443810    -0.074729   -0.055447    0.000000  
      0.000000  3.169694  5.656278    -0.074729   -0.055447    0.000000  
      0.000000  0.000000  0.000000     0.135263    0.250421   -0.000000  
      0.000000  0.000000  6.787533     0.278879    0.056863   -0.000000  
      2.745035  1.584847  4.525022     0.135263    0.250421   -0.000000  
      2.745036  1.584847 11.312555     0.278879    0.056863   -0.000000  
     -0.000000  3.169694  9.050044     0.135263    0.250421   -0.000000  
      0.000000  3.169694  2.262511     0.278879    0.056863   -0.000000  
     -1.545750  2.677317  3.393767    -0.144939   -0.102184   -0.011756  
     -1.199286  2.077224 10.181300    -0.144939   -0.102184   -0.011756  
      1.199286  2.077224  3.393767    -0.125419   -0.075876    0.004705  
      1.545750  2.677317 10.181300    -0.125419   -0.075876    0.004705  
      3.091500 -0.000000  3.393767    -0.112395   -0.105935    0.007051  
      2.398571 -0.000000 10.181300    -0.112395   -0.105935    0.007051  
      1.199286  4.262164  7.918789    -0.144939   -0.102184   -0.011756  
      1.545750  3.662070  1.131256    -0.144939   -0.102184   -0.011756  
     -1.545750  3.662070  7.918789    -0.125419   -0.075876    0.004705  
     -1.199285  4.262164  1.131256    -0.125419   -0.075876    0.004705  
      0.346464  1.584847  7.918789    -0.112395   -0.105935    0.007051  
     -0.346464  1.584847  1.131256    -0.112395   -0.105935    0.007051  
      1.199286  1.092470 12.443810    -0.144939   -0.102184   -0.011756  
      1.545750  0.492377  5.656278    -0.144939   -0.102184   -0.011756  
      3.944321  0.492377 12.443810    -0.125419   -0.075876    0.004705  
      4.290785  1.092470  5.656278    -0.125419   -0.075876    0.004705  
      3.091500  3.169694 12.443810    -0.112395   -0.105935    0.007051  
      2.398571  3.169694  5.656278    -0.112395   -0.105935    0.007051  
 
  89 f/i=    3.013051 THz    18.931558 2PiTHz  100.504560 cm-1    12.460982 meV
             X         Y         Z           dx          dy          dz
      0.000000  0.000000  3.393767    -0.055447    0.074729    0.000000  
      0.000000  0.000000 10.181300    -0.055447    0.074729   -0.000000  
      2.745035  1.584847  7.918789    -0.055447    0.074729    0.000000  
      2.745035  1.584847  1.131256    -0.055447    0.074729   -0.000000  
      0.000000  3.169694 12.443810    -0.055447    0.074729   -0.000000  
      0.000000  3.169694  5.656278    -0.055447    0.074729    0.000000  
      0.000000  0.000000  0.000000     0.250421   -0.135263    0.000000  
      0.000000  0.000000  6.787533     0.056863   -0.278879   -0.000000  
      2.745035  1.584847  4.525022     0.250421   -0.135263    0.000000  
      2.745036  1.584847 11.312555     0.056863   -0.278879   -0.000000  
     -0.000000  3.169694  9.050044     0.250421   -0.135263    0.000000  
      0.000000  3.169694  2.262511     0.056863   -0.278879   -0.000000  
     -1.545750  2.677317  3.393767    -0.087146    0.110230   -0.001355  
     -1.199286  2.077224 10.181300    -0.087146    0.110230   -0.001355  
      1.199286  2.077224  3.393767    -0.113454    0.129750    0.010858  
      1.545750  2.677317 10.181300    -0.113454    0.129750    0.010858  
      3.091500 -0.000000  3.393767    -0.083395    0.142774   -0.009503  
      2.398571 -0.000000 10.181300    -0.083395    0.142774   -0.009503  
      1.199286  4.262164  7.918789    -0.087146    0.110230   -0.001355  
      1.545750  3.662070  1.131256    -0.087146    0.110230   -0.001355  
     -1.545750  3.662070  7.918789    -0.113454    0.129750    0.010858  
     -1.199285  4.262164  1.131256    -0.113454    0.129750    0.010858  
      0.346464  1.584847  7.918789    -0.083395    0.142774   -0.009503  
     -0.346464  1.584847  1.131256    -0.083395    0.142774   -0.009503  
      1.199286  1.092470 12.443810    -0.087146    0.110230   -0.001355  
      1.545750  0.492377  5.656278    -0.087146    0.110230   -0.001355  
      3.944321  0.492377 12.443810    -0.113454    0.129750    0.010858  
      4.290785  1.092470  5.656278    -0.113454    0.129750    0.010858  
      3.091500  3.169694 12.443810    -0.083395    0.142774   -0.009503  
      2.398571  3.169694  5.656278    -0.083395    0.142774   -0.009503  
 
  90 f/i=    3.981551 THz    25.016821 2PiTHz  132.810234 cm-1    16.466376 meV
             X         Y         Z           dx          dy          dz
      0.000000  0.000000  3.393767    -0.000000    0.000000    0.000538  
      0.000000  0.000000 10.181300    -0.000000    0.000000    0.000538  
      2.745035  1.584847  7.918789    -0.000000    0.000000    0.000538  
      2.745035  1.584847  1.131256    -0.000000    0.000000    0.000538  
      0.000000  3.169694 12.443810    -0.000000    0.000000    0.000538  
      0.000000  3.169694  5.656278    -0.000000    0.000000    0.000538  
      0.000000  0.000000  0.000000     0.000000    0.000000    0.237894  
      0.000000  0.000000  6.787533     0.000000   -0.000000    0.237894  
      2.745035  1.584847  4.525022     0.000000    0.000000    0.237894  
      2.745036  1.584847 11.312555     0.000000   -0.000000    0.237894  
     -0.000000  3.169694  9.050044     0.000000    0.000000    0.237894  
      0.000000  3.169694  2.262511     0.000000   -0.000000    0.237894  
     -1.545750  2.677317  3.393767     0.003803    0.002196   -0.191498  
     -1.199286  2.077224 10.181300     0.003803    0.002196   -0.191498  
      1.199286  2.077224  3.393767    -0.003803    0.002196   -0.191498  
      1.545750  2.677317 10.181300    -0.003803    0.002196   -0.191498  
      3.091500 -0.000000  3.393767    -0.000000   -0.004392   -0.191498  
      2.398571 -0.000000 10.181300    -0.000000   -0.004392   -0.191498  
      1.199286  4.262164  7.918789     0.003803    0.002196   -0.191498  
      1.545750  3.662070  1.131256     0.003803    0.002196   -0.191498  
     -1.545750  3.662070  7.918789    -0.003803    0.002196   -0.191498  
     -1.199285  4.262164  1.131256    -0.003803    0.002196   -0.191498  
      0.346464  1.584847  7.918789    -0.000000   -0.004392   -0.191498  
     -0.346464  1.584847  1.131256    -0.000000   -0.004392   -0.191498  
      1.199286  1.092470 12.443810     0.003803    0.002196   -0.191498  
      1.545750  0.492377  5.656278     0.003803    0.002196   -0.191498  
      3.944321  0.492377 12.443810    -0.003803    0.002196   -0.191498  
      4.290785  1.092470  5.656278    -0.003803    0.002196   -0.191498  
      3.091500  3.169694 12.443810    -0.000000   -0.004392   -0.191498  
      2.398571  3.169694  5.656278    -0.000000   -0.004392   -0.191498  
 


--------------------------------------------------------------------------------------------------------




 MACROSCOPIC STATIC DIELECTRIC TENSOR IONIC CONTRIBUTION
 ------------------------------------------------------
           3.962250    -0.000000    -0.000000
          -0.000000     3.962364    -0.000002
          -0.000000    -0.000002     5.589598
 ------------------------------------------------------


 ELASTIC MODULI IONIC CONTR (kBar)
 Direction    XX          YY          ZZ          XY          YZ          ZX
 --------------------------------------------------------------------------------
 XX        -469.1413    424.9033    -82.2677      0.0000    264.4946     -0.0000
 YY         424.9033   -469.1413    -82.2677      0.0000   -264.4946      0.0000
 ZZ         -82.2677    -82.2677   -305.9794      0.0000     -0.0000     -0.0000
 XY           0.0000      0.0000      0.0000   -447.0348      0.0000    267.0657
 YZ         264.4946   -264.4946      0.0000      0.0000   -338.5562      0.0000
 ZX          -0.0000      0.0000     -0.0000    267.0657      0.0000   -342.8032
 --------------------------------------------------------------------------------


 PIEZOELECTRIC TENSOR IONIC CONTR  for field in x, y, z        (C/m^2)
          XX          YY          ZZ          XY          YZ          ZX
  --------------------------------------------------------------------------------
  x    -0.00009     0.00011     0.00002    -0.00000     0.00008     0.00000
  y     0.00004    -0.00001     0.00005    -0.00000    -0.00003     0.00000
  z    -0.00000    -0.00000    -0.00000    -0.00000    -0.00000     0.00000


--------------------------------------------------------------------------------------------------------


     LOOP+:  cpu time 5029.6563: real time 5033.6637
    4ORBIT:  cpu time    0.0000: real time    0.0000
 


 total charge     
 
# of ion       s       p       d       tot
------------------------------------------
    1        1.969   5.608   0.079   7.655
    2        1.969   5.608   0.079   7.655
    3        1.969   5.608   0.079   7.655
    4        1.969   5.608   0.079   7.655
    5        1.969   5.608   0.079   7.655
    6        1.969   5.608   0.079   7.655
    7        2.216   6.160   2.051  10.427
    8        2.216   6.160   2.051  10.427
    9        2.216   6.160   2.051  10.427
   10        2.216   6.160   2.051  10.427
   11        2.216   6.160   2.051  10.427
   12        2.216   6.160   2.051  10.427
   13        1.569   3.492   0.000   5.061
   14        1.569   3.492   0.000   5.061
   15        1.570   3.501   0.000   5.070
   16        1.570   3.501   0.000   5.070
   17        1.569   3.500   0.000   5.070
   18        1.569   3.500   0.000   5.070
   19        1.569   3.492   0.000   5.061
   20        1.569   3.492   0.000   5.061
   21        1.570   3.501   0.000   5.070
   22        1.570   3.501   0.000   5.070
   23        1.569   3.500   0.000   5.070
   24        1.569   3.500   0.000   5.070
   25        1.569   3.492   0.000   5.061
   26        1.569   3.492   0.000   5.061
   27        1.570   3.501   0.000   5.070
   28        1.570   3.501   0.000   5.070
   29        1.569   3.500   0.000   5.070
   30        1.569   3.500   0.000   5.070
--------------------------------------------------
tot         53.355 133.568  12.778 199.701
 

 total amount of memory used by VASP MPI-rank0   138774. kBytes
=======================================================================

   base      :      30000. kBytes
   nonl-proj :      82444. kBytes
   fftplans  :       5344. kBytes
   grid      :       8488. kBytes
   one-center:        466. kBytes
   wavefun   :      12032. kBytes
 
  
  
 General timing and accounting informations for this job:
 ========================================================
  
                  Total CPU time used (sec):     5034.358
                            User time (sec):     4978.300
                          System time (sec):       56.058
                         Elapsed time (sec):     5038.924
  
                   Maximum memory used (kb):      659452.
                   Average memory used (kb):           0.
  
                          Minor page faults:      1120727
                          Major page faults:            0
                 Voluntary context switches:        85926
